 Title="htotr=wrt_Tmpa;htota=wrt_Tref;hinr=pq;hts2=cum_leak2bdy;hqtop=cum_top_recharge"
 variables="time","htotr(J)","htota(J)","hinr(J)","hts2-leak(J)","hqtop(J)"
 zone i=9999, T="htot(J); replace 9999 with bottom #"
             0.0    0.137625E+14    0.000000E+00             0.0             0.0             0.0
  0.10000000E+01  0.13762476E+14  0.00000000E+00  0.00000000E+00  0.00000000E+00  0.00000000E+00
  0.20000000E+01  0.13762476E+14  0.00000000E+00  0.00000000E+00  0.00000000E+00  0.00000000E+00
  0.30000000E+01  0.13762476E+14  0.00000000E+00  0.00000000E+00  0.00000000E+00  0.00000000E+00
  0.40000000E+01  0.13762476E+14  0.00000000E+00  0.00000000E+00  0.00000000E+00  0.00000000E+00
  0.50000000E+01  0.13762476E+14  0.00000000E+00  0.00000000E+00  0.00000000E+00  0.00000000E+00
  0.60000000E+01  0.13762476E+14  0.00000000E+00  0.00000000E+00  0.00000000E+00  0.00000000E+00
  0.70000000E+01  0.13762476E+14  0.00000000E+00  0.00000000E+00  0.00000000E+00  0.00000000E+00
  0.80000000E+01  0.13762476E+14  0.00000000E+00  0.00000000E+00  0.00000000E+00  0.00000000E+00
  0.90000000E+01  0.13762476E+14  0.00000000E+00  0.00000000E+00  0.00000000E+00  0.00000000E+00
  0.10000000E+02  0.13762476E+14  0.00000000E+00  0.00000000E+00  0.00000000E+00  0.00000000E+00
  0.11000000E+02  0.13762476E+14  0.00000000E+00  0.00000000E+00  0.00000000E+00  0.00000000E+00
  0.12000000E+02  0.13762476E+14  0.00000000E+00  0.00000000E+00  0.00000000E+00  0.00000000E+00
  0.13000000E+02  0.13762476E+14  0.00000000E+00  0.00000000E+00  0.00000000E+00  0.00000000E+00
  0.14000000E+02  0.13762476E+14  0.00000000E+00  0.00000000E+00  0.00000000E+00  0.00000000E+00
  0.15000000E+02  0.13762476E+14  0.00000000E+00  0.00000000E+00  0.00000000E+00  0.00000000E+00
  0.16000000E+02  0.13762476E+14  0.00000000E+00  0.00000000E+00  0.00000000E+00  0.00000000E+00
  0.17000000E+02  0.13762476E+14  0.00000000E+00  0.00000000E+00  0.00000000E+00  0.00000000E+00
  0.18000000E+02  0.13762476E+14  0.00000000E+00  0.00000000E+00  0.00000000E+00  0.00000000E+00
  0.19000000E+02  0.13762476E+14  0.00000000E+00  0.00000000E+00  0.00000000E+00  0.00000000E+00
  0.20000000E+02  0.13762476E+14  0.00000000E+00  0.00000000E+00  0.00000000E+00  0.00000000E+00
number of print times:     20 (replace 9999 above)
