title="3d vectors"
variables="x","y","z","vx","vy","vz"
zone i=    25, j=     1, k=   200, T=" 0.10000E+01"
  0.100000E+01  0.500000E+00  0.100000E+01  0.401508E-06 -0.924501E-13 -0.401143E-06
  0.100000E+01  0.500000E+00  0.300000E+01  0.152836E-05  0.458665E-12 -0.265266E-05
  0.100000E+01  0.500000E+00  0.500000E+01  0.104889E-05  0.540777E-12 -0.490699E-05
  0.100000E+01  0.500000E+00  0.700000E+01  0.105777E-05  0.908740E-13 -0.701102E-05
  0.100000E+01  0.500000E+00  0.900000E+01  0.108186E-05  0.783973E-14 -0.914313E-05
  0.100000E+01  0.500000E+00  0.110000E+02  0.112415E-05  0.491271E-13 -0.113445E-04
  0.100000E+01  0.500000E+00  0.130000E+02  0.118054E-05 -0.199154E-12 -0.136444E-04
  0.100000E+01  0.500000E+00  0.150000E+02  0.125226E-05 -0.206067E-12 -0.160718E-04
  0.100000E+01  0.500000E+00  0.170000E+02  0.134190E-05 -0.219184E-12 -0.186594E-04
  0.100000E+01  0.500000E+00  0.190000E+02  0.145338E-05 -0.330173E-12 -0.214467E-04
  0.100000E+01  0.500000E+00  0.210000E+02  0.159224E-05 -0.435469E-12 -0.244821E-04
  0.100000E+01  0.500000E+00  0.230000E+02  0.176623E-05 -0.424593E-12 -0.278273E-04
  0.100000E+01  0.500000E+00  0.250000E+02  0.198639E-05 -0.253245E-12 -0.315624E-04
  0.100000E+01  0.500000E+00  0.270000E+02  0.226876E-05 -0.325259E-12 -0.357936E-04
  0.100000E+01  0.500000E+00  0.290000E+02  0.263728E-05 -0.486222E-13 -0.406661E-04
  0.100000E+01  0.500000E+00  0.310000E+02  0.312892E-05  0.180535E-12 -0.463837E-04
  0.100000E+01  0.500000E+00  0.330000E+02  0.380304E-05 -0.547129E-13 -0.532426E-04
  0.100000E+01  0.500000E+00  0.350000E+02  0.475981E-05  0.256564E-12 -0.616901E-04
  0.100000E+01  0.500000E+00  0.370000E+02  0.617884E-05  0.340517E-12 -0.724359E-04
  0.100000E+01  0.500000E+00  0.390000E+02  0.840595E-05 -0.548592E-13 -0.866749E-04
  0.100000E+01  0.500000E+00  0.410000E+02  0.121996E-04  0.181676E-12 -0.106582E-03
  0.100000E+01  0.500000E+00  0.430000E+02  0.192044E-04  0.192449E-12 -0.136544E-03
  0.100000E+01  0.500000E+00  0.450000E+02  0.368748E-04  0.270014E-12 -0.186955E-03
  0.100000E+01  0.500000E+00  0.470000E+02  0.632081E-04  0.215568E-12 -0.286931E-03
  0.100000E+01  0.500000E+00  0.490000E+02  0.615930E-03 -0.220317E-12 -0.615250E-03
  0.300000E+01  0.500000E+00  0.100000E+01  0.264099E-05  0.126205E-12 -0.151018E-05
  0.300000E+01  0.500000E+00  0.300000E+01  0.315188E-05  0.588623E-12 -0.311649E-05
  0.300000E+01  0.500000E+00  0.500000E+01  0.314205E-05  0.494607E-12 -0.493246E-05
  0.300000E+01  0.500000E+00  0.700000E+01  0.314611E-05  0.316820E-12 -0.697262E-05
  0.300000E+01  0.500000E+00  0.900000E+01  0.323173E-05  0.143761E-13 -0.907181E-05
  0.300000E+01  0.500000E+00  0.110000E+02  0.335889E-05  0.320193E-13 -0.112464E-04
  0.300000E+01  0.500000E+00  0.130000E+02  0.352672E-05 -0.212399E-12 -0.135183E-04
  0.300000E+01  0.500000E+00  0.150000E+02  0.373925E-05 -0.195591E-12 -0.159136E-04
  0.300000E+01  0.500000E+00  0.170000E+02  0.400435E-05 -0.163594E-12 -0.184628E-04
  0.300000E+01  0.500000E+00  0.190000E+02  0.433347E-05 -0.310208E-12 -0.212026E-04
  0.300000E+01  0.500000E+00  0.210000E+02  0.474260E-05 -0.441793E-12 -0.241781E-04
  0.300000E+01  0.500000E+00  0.230000E+02  0.525406E-05 -0.535086E-12 -0.274458E-04
  0.300000E+01  0.500000E+00  0.250000E+02  0.589937E-05 -0.381641E-12 -0.310784E-04
  0.300000E+01  0.500000E+00  0.270000E+02  0.672404E-05 -0.453042E-12 -0.351706E-04
  0.300000E+01  0.500000E+00  0.290000E+02  0.779538E-05 -0.154259E-12 -0.398493E-04
  0.300000E+01  0.500000E+00  0.310000E+02  0.921609E-05  0.128763E-12 -0.452882E-04
  0.300000E+01  0.500000E+00  0.330000E+02  0.111488E-04 -0.471447E-13 -0.517313E-04
  0.300000E+01  0.500000E+00  0.350000E+02  0.138625E-04  0.269043E-12 -0.595309E-04
  0.300000E+01  0.500000E+00  0.370000E+02  0.178270E-04  0.288686E-12 -0.692117E-04
  0.300000E+01  0.500000E+00  0.390000E+02  0.239201E-04  0.797284E-14 -0.815789E-04
  0.300000E+01  0.500000E+00  0.410000E+02  0.339064E-04  0.369820E-12 -0.978978E-04
  0.300000E+01  0.500000E+00  0.430000E+02  0.519703E-04  0.378590E-12 -0.120159E-03
  0.300000E+01  0.500000E+00  0.450000E+02  0.869632E-04  0.369215E-12 -0.150676E-03
  0.300000E+01  0.500000E+00  0.470000E+02  0.192940E-03  0.276785E-12 -0.190900E-03
  0.300000E+01  0.500000E+00  0.490000E+02  0.288970E-03 -0.284750E-12 -0.625282E-04
  0.500000E+01  0.500000E+00  0.100000E+01  0.483422E-05  0.398508E-12 -0.999945E-06
  0.500000E+01  0.500000E+00  0.300000E+01  0.493909E-05  0.256249E-12 -0.301097E-05
  0.500000E+01  0.500000E+00  0.500000E+01  0.507612E-05  0.304367E-12 -0.491077E-05
  0.500000E+01  0.500000E+00  0.700000E+01  0.518822E-05  0.195680E-12 -0.687815E-05
  0.500000E+01  0.500000E+00  0.900000E+01  0.534222E-05  0.223881E-12 -0.892665E-05
  0.500000E+01  0.500000E+00  0.110000E+02  0.555464E-05  0.322887E-12 -0.110520E-04
  0.500000E+01  0.500000E+00  0.130000E+02  0.582924E-05  0.549840E-13 -0.132703E-04
  0.500000E+01  0.500000E+00  0.150000E+02  0.617480E-05 -0.483273E-13 -0.156036E-04
  0.500000E+01  0.500000E+00  0.170000E+02  0.660422E-05 -0.225744E-13 -0.180784E-04
  0.500000E+01  0.500000E+00  0.190000E+02  0.713554E-05 -0.149873E-12 -0.207267E-04
  0.500000E+01  0.500000E+00  0.210000E+02  0.779354E-05 -0.249950E-12 -0.235870E-04
  0.500000E+01  0.500000E+00  0.230000E+02  0.861237E-05 -0.233315E-12 -0.267067E-04
  0.500000E+01  0.500000E+00  0.250000E+02  0.963973E-05 -0.113586E-12 -0.301448E-04
  0.500000E+01  0.500000E+00  0.270000E+02  0.109434E-04 -0.173270E-12 -0.339757E-04
  0.500000E+01  0.500000E+00  0.290000E+02  0.126220E-04 -0.727423E-13 -0.382942E-04
  0.500000E+01  0.500000E+00  0.310000E+02  0.148225E-04 -0.810367E-13 -0.432221E-04
  0.500000E+01  0.500000E+00  0.330000E+02  0.177708E-04 -0.162937E-12 -0.489164E-04
  0.500000E+01  0.500000E+00  0.350000E+02  0.218266E-04  0.577511E-13 -0.555763E-04
  0.500000E+01  0.500000E+00  0.370000E+02  0.275854E-04 -0.821168E-13 -0.634430E-04
  0.500000E+01  0.500000E+00  0.390000E+02  0.360767E-04 -0.243000E-12 -0.727632E-04
  0.500000E+01  0.500000E+00  0.410000E+02  0.491808E-04 -0.148329E-12 -0.836230E-04
  0.500000E+01  0.500000E+00  0.430000E+02  0.702937E-04 -0.150032E-12 -0.952574E-04
  0.500000E+01  0.500000E+00  0.450000E+02  0.107139E-03 -0.142525E-12 -0.103740E-03
  0.500000E+01  0.500000E+00  0.470000E+02  0.154076E-03 -0.183402E-12 -0.849234E-04
  0.500000E+01  0.500000E+00  0.490000E+02  0.190355E-03 -0.360565E-12 -0.361948E-04
  0.700000E+01  0.500000E+00  0.100000E+01  0.679789E-05  0.240835E-12 -0.961054E-06
  0.700000E+01  0.500000E+00  0.300000E+01  0.687083E-05  0.997415E-13 -0.287205E-05
  0.700000E+01  0.500000E+00  0.500000E+01  0.699870E-05  0.216558E-12 -0.478479E-05
  0.700000E+01  0.500000E+00  0.700000E+01  0.717206E-05  0.241296E-12 -0.671867E-05
  0.700000E+01  0.500000E+00  0.900000E+01  0.739675E-05  0.169106E-12 -0.870744E-05
  0.700000E+01  0.500000E+00  0.110000E+02  0.768938E-05  0.242424E-12 -0.107661E-04
  0.700000E+01  0.500000E+00  0.130000E+02  0.806218E-05  0.114579E-12 -0.129088E-04
  0.700000E+01  0.500000E+00  0.150000E+02  0.852809E-05  0.119292E-12 -0.151537E-04
  0.700000E+01  0.500000E+00  0.170000E+02  0.910432E-05  0.819911E-13 -0.175227E-04
  0.700000E+01  0.500000E+00  0.190000E+02  0.981391E-05 -0.543197E-13 -0.200415E-04
  0.700000E+01  0.500000E+00  0.210000E+02  0.106879E-04 -0.970533E-13 -0.227401E-04
  0.700000E+01  0.500000E+00  0.230000E+02  0.117684E-04 -0.125705E-12 -0.256541E-04
  0.700000E+01  0.500000E+00  0.250000E+02  0.131133E-04 -0.138546E-12 -0.288252E-04
  0.700000E+01  0.500000E+00  0.270000E+02  0.148028E-04 -0.302565E-12 -0.323021E-04
  0.700000E+01  0.500000E+00  0.290000E+02  0.169508E-04 -0.107577E-12 -0.361412E-04
  0.700000E+01  0.500000E+00  0.310000E+02  0.197211E-04 -0.199289E-12 -0.404043E-04
  0.700000E+01  0.500000E+00  0.330000E+02  0.233550E-04 -0.331062E-12 -0.451521E-04
  0.700000E+01  0.500000E+00  0.350000E+02  0.282139E-04  0.729194E-15 -0.504259E-04
  0.700000E+01  0.500000E+00  0.370000E+02  0.348493E-04 -0.145355E-12 -0.561993E-04
  0.700000E+01  0.500000E+00  0.390000E+02  0.441070E-04 -0.263432E-12 -0.622579E-04
  0.700000E+01  0.500000E+00  0.410000E+02  0.572373E-04 -0.136192E-12 -0.678938E-04
  0.700000E+01  0.500000E+00  0.430000E+02  0.759352E-04 -0.115976E-12 -0.711759E-04
  0.700000E+01  0.500000E+00  0.450000E+02  0.100017E-03 -0.119361E-12 -0.668939E-04
  0.700000E+01  0.500000E+00  0.470000E+02  0.124919E-03 -0.644195E-13 -0.499303E-04
  0.700000E+01  0.500000E+00  0.490000E+02  0.141304E-03 -0.229924E-12 -0.185244E-04
  0.900000E+01  0.500000E+00  0.100000E+01  0.867816E-05  0.103580E-12 -0.921309E-06
  0.900000E+01  0.500000E+00  0.300000E+01  0.875054E-05 -0.713205E-13 -0.276647E-05
  0.900000E+01  0.500000E+00  0.500000E+01  0.889195E-05 -0.313971E-14 -0.462110E-05
  0.900000E+01  0.500000E+00  0.700000E+01  0.910078E-05  0.992217E-13 -0.650016E-05
  0.900000E+01  0.500000E+00  0.900000E+01  0.938177E-05  0.231184E-12 -0.842028E-05
  0.900000E+01  0.500000E+00  0.110000E+02  0.974489E-05  0.343132E-12 -0.103975E-04
  0.900000E+01  0.500000E+00  0.130000E+02  0.102034E-04  0.132906E-12 -0.124461E-04
  0.900000E+01  0.500000E+00  0.150000E+02  0.107730E-04  0.230076E-12 -0.145808E-04
  0.900000E+01  0.500000E+00  0.170000E+02  0.114736E-04  0.176682E-12 -0.168186E-04
  0.900000E+01  0.500000E+00  0.190000E+02  0.123314E-04  0.768356E-13 -0.191782E-04
  0.900000E+01  0.500000E+00  0.210000E+02  0.133807E-04 -0.498135E-13 -0.216801E-04
  0.900000E+01  0.500000E+00  0.230000E+02  0.146674E-04 -0.124024E-12 -0.243470E-04
  0.900000E+01  0.500000E+00  0.250000E+02  0.162526E-04  0.501381E-13 -0.272022E-04
  0.900000E+01  0.500000E+00  0.270000E+02  0.182195E-04 -0.245717E-12 -0.302687E-04
  0.900000E+01  0.500000E+00  0.290000E+02  0.206812E-04 -0.243509E-12 -0.335650E-04
  0.900000E+01  0.500000E+00  0.310000E+02  0.237937E-04 -0.199663E-12 -0.370976E-04
  0.900000E+01  0.500000E+00  0.330000E+02  0.277731E-04 -0.444007E-12 -0.408455E-04
  0.900000E+01  0.500000E+00  0.350000E+02  0.329180E-04 -0.111256E-12 -0.447286E-04
  0.900000E+01  0.500000E+00  0.370000E+02  0.396333E-04 -0.275842E-13 -0.485460E-04
  0.900000E+01  0.500000E+00  0.390000E+02  0.484333E-04 -0.288591E-12 -0.518535E-04
  0.900000E+01  0.500000E+00  0.410000E+02  0.598597E-04 -0.190943E-12 -0.537414E-04
  0.900000E+01  0.500000E+00  0.430000E+02  0.740123E-04 -0.338303E-13 -0.524778E-04
  0.900000E+01  0.500000E+00  0.450000E+02  0.897421E-04 -0.122717E-12 -0.457807E-04
  0.900000E+01  0.500000E+00  0.470000E+02  0.104017E-03  0.295487E-13 -0.318661E-04
  0.900000E+01  0.500000E+00  0.490000E+02  0.112702E-03 -0.527876E-13 -0.115195E-04
  0.110000E+02  0.500000E+00  0.100000E+01  0.104837E-04 -0.179083E-12 -0.883254E-06
  0.110000E+02  0.500000E+00  0.300000E+01  0.105626E-04 -0.331585E-12 -0.265326E-05
  0.110000E+02  0.500000E+00  0.500000E+01  0.107205E-04 -0.963236E-13 -0.443494E-05
  0.110000E+02  0.500000E+00  0.700000E+01  0.109596E-04 -0.115863E-13 -0.623847E-05
  0.110000E+02  0.500000E+00  0.900000E+01  0.112849E-04  0.138810E-12 -0.807561E-05
  0.110000E+02  0.500000E+00  0.110000E+02  0.117058E-04  0.175973E-12 -0.995820E-05
  0.110000E+02  0.500000E+00  0.130000E+02  0.122349E-04  0.126968E-12 -0.118978E-04
  0.110000E+02  0.500000E+00  0.150000E+02  0.128888E-04  0.118900E-12 -0.139057E-04
  0.110000E+02  0.500000E+00  0.170000E+02  0.136885E-04  0.157567E-13 -0.159935E-04
  0.110000E+02  0.500000E+00  0.190000E+02  0.146610E-04  0.181258E-12 -0.181730E-04
  0.110000E+02  0.500000E+00  0.210000E+02  0.158412E-04  0.146992E-12 -0.204557E-04
  0.110000E+02  0.500000E+00  0.230000E+02  0.172746E-04 -0.102278E-12 -0.228514E-04
  0.110000E+02  0.500000E+00  0.250000E+02  0.190201E-04  0.125270E-12 -0.253669E-04
  0.110000E+02  0.500000E+00  0.270000E+02  0.211551E-04 -0.130784E-12 -0.280022E-04
  0.110000E+02  0.500000E+00  0.290000E+02  0.237801E-04 -0.332423E-12 -0.307448E-04
  0.110000E+02  0.500000E+00  0.310000E+02  0.270264E-04 -0.236248E-12 -0.335592E-04
  0.110000E+02  0.500000E+00  0.330000E+02  0.310618E-04 -0.434149E-12 -0.363692E-04
  0.110000E+02  0.500000E+00  0.350000E+02  0.360947E-04 -0.235045E-12 -0.390272E-04
  0.110000E+02  0.500000E+00  0.370000E+02  0.423630E-04  0.379867E-13 -0.412638E-04
  0.110000E+02  0.500000E+00  0.390000E+02  0.500872E-04 -0.120447E-12 -0.426114E-04
  0.110000E+02  0.500000E+00  0.410000E+02  0.593298E-04 -0.117329E-12 -0.423146E-04
  0.110000E+02  0.500000E+00  0.430000E+02  0.697353E-04  0.616547E-13 -0.393465E-04
  0.110000E+02  0.500000E+00  0.450000E+02  0.802419E-04 -0.607682E-13 -0.326756E-04
  0.110000E+02  0.500000E+00  0.470000E+02  0.890587E-04  0.131383E-12 -0.218791E-04
  0.110000E+02  0.500000E+00  0.490000E+02  0.941552E-04  0.803931E-13 -0.772556E-05
  0.130000E+02  0.500000E+00  0.100000E+01  0.122101E-04 -0.162502E-12 -0.842079E-06
  0.130000E+02  0.500000E+00  0.300000E+01  0.122961E-04 -0.284440E-12 -0.252956E-05
  0.130000E+02  0.500000E+00  0.500000E+01  0.124694E-04 -0.118763E-12 -0.422734E-05
  0.130000E+02  0.500000E+00  0.700000E+01  0.127334E-04  0.999945E-13 -0.594313E-05
  0.130000E+02  0.500000E+00  0.900000E+01  0.130937E-04  0.475868E-13 -0.768521E-05
  0.130000E+02  0.500000E+00  0.110000E+02  0.135595E-04  0.209942E-12 -0.946191E-05
  0.130000E+02  0.500000E+00  0.130000E+02  0.141432E-04  0.208657E-12 -0.112812E-04
  0.130000E+02  0.500000E+00  0.150000E+02  0.148609E-04  0.586606E-13 -0.131506E-04
  0.130000E+02  0.500000E+00  0.170000E+02  0.157331E-04 -0.324631E-13 -0.150766E-04
  0.130000E+02  0.500000E+00  0.190000E+02  0.167862E-04  0.223874E-13 -0.170644E-04
  0.130000E+02  0.500000E+00  0.210000E+02  0.180530E-04  0.104713E-12 -0.191172E-04
  0.130000E+02  0.500000E+00  0.230000E+02  0.195754E-04  0.478217E-13 -0.212341E-04
  0.130000E+02  0.500000E+00  0.250000E+02  0.214060E-04  0.305306E-12 -0.234081E-04
  0.130000E+02  0.500000E+00  0.270000E+02  0.236105E-04  0.237219E-13 -0.256216E-04
  0.130000E+02  0.500000E+00  0.290000E+02  0.262704E-04 -0.400268E-12 -0.278404E-04
  0.130000E+02  0.500000E+00  0.310000E+02  0.294843E-04 -0.314436E-12 -0.300034E-04
  0.130000E+02  0.500000E+00  0.330000E+02  0.333664E-04 -0.270184E-12 -0.320073E-04
  0.130000E+02  0.500000E+00  0.350000E+02  0.380382E-04 -0.853495E-13 -0.336844E-04
  0.130000E+02  0.500000E+00  0.370000E+02  0.436036E-04  0.183720E-13 -0.347728E-04
  0.130000E+02  0.500000E+00  0.390000E+02  0.500955E-04 -0.148028E-12 -0.348863E-04
  0.130000E+02  0.500000E+00  0.410000E+02  0.573797E-04  0.286189E-13 -0.335129E-04
  0.130000E+02  0.500000E+00  0.430000E+02  0.650355E-04  0.220248E-12 -0.300869E-04
  0.130000E+02  0.500000E+00  0.450000E+02  0.722816E-04 -0.538369E-14 -0.241825E-04
  0.130000E+02  0.500000E+00  0.470000E+02  0.780521E-04  0.408255E-12 -0.157848E-04
  0.130000E+02  0.500000E+00  0.490000E+02  0.812774E-04  0.244673E-12 -0.549804E-05
  0.150000E+02  0.500000E+00  0.100000E+01  0.138510E-04 -0.383158E-12 -0.797757E-06
  0.150000E+02  0.500000E+00  0.300000E+01  0.139430E-04 -0.535847E-12 -0.239589E-05
  0.150000E+02  0.500000E+00  0.500000E+01  0.141287E-04 -0.357703E-12 -0.400197E-05
  0.150000E+02  0.500000E+00  0.700000E+01  0.144118E-04 -0.716052E-13 -0.562151E-05
  0.150000E+02  0.500000E+00  0.900000E+01  0.147982E-04 -0.148963E-12 -0.726002E-05
  0.150000E+02  0.500000E+00  0.110000E+02  0.152967E-04 -0.143432E-13 -0.892280E-05
  0.150000E+02  0.500000E+00  0.130000E+02  0.159189E-04  0.952558E-13 -0.106145E-04
  0.150000E+02  0.500000E+00  0.150000E+02  0.166801E-04  0.166593E-12 -0.123386E-04
  0.150000E+02  0.500000E+00  0.170000E+02  0.175993E-04  0.178879E-13 -0.140971E-04
  0.150000E+02  0.500000E+00  0.190000E+02  0.187004E-04  0.788467E-13 -0.158898E-04
  0.150000E+02  0.500000E+00  0.210000E+02  0.200128E-04  0.970779E-13 -0.177126E-04
  0.150000E+02  0.500000E+00  0.230000E+02  0.215725E-04  0.204226E-13 -0.195566E-04
  0.150000E+02  0.500000E+00  0.250000E+02  0.234231E-04  0.293576E-12 -0.214045E-04
  0.150000E+02  0.500000E+00  0.270000E+02  0.256165E-04  0.113806E-12 -0.232273E-04
  0.150000E+02  0.500000E+00  0.290000E+02  0.282127E-04 -0.200286E-12 -0.249786E-04
  0.150000E+02  0.500000E+00  0.310000E+02  0.312779E-04 -0.282141E-12 -0.265861E-04
  0.150000E+02  0.500000E+00  0.330000E+02  0.348787E-04 -0.352459E-12 -0.279416E-04
  0.150000E+02  0.500000E+00  0.350000E+02  0.390695E-04 -0.310678E-13 -0.288877E-04
  0.150000E+02  0.500000E+00  0.370000E+02  0.438675E-04  0.555613E-13 -0.292060E-04
  0.150000E+02  0.500000E+00  0.390000E+02  0.492136E-04 -0.164738E-12 -0.286152E-04
  0.150000E+02  0.500000E+00  0.410000E+02  0.549193E-04  0.673952E-13 -0.267941E-04
  0.150000E+02  0.500000E+00  0.430000E+02  0.606211E-04  0.177425E-12 -0.234481E-04
  0.150000E+02  0.500000E+00  0.450000E+02  0.657755E-04 -0.438933E-13 -0.184209E-04
  0.150000E+02  0.500000E+00  0.470000E+02  0.697330E-04  0.500860E-12 -0.118185E-04
  0.150000E+02  0.500000E+00  0.490000E+02  0.718938E-04  0.248843E-12 -0.407835E-05
  0.170000E+02  0.500000E+00  0.100000E+01  0.154003E-04 -0.297711E-12 -0.750860E-06
  0.170000E+02  0.500000E+00  0.300000E+01  0.154967E-04 -0.407302E-12 -0.225436E-05
  0.170000E+02  0.500000E+00  0.500000E+01  0.156913E-04 -0.451391E-12 -0.376320E-05
  0.170000E+02  0.500000E+00  0.700000E+01  0.159877E-04 -0.212105E-12 -0.528081E-05
  0.170000E+02  0.500000E+00  0.900000E+01  0.163916E-04 -0.160190E-12 -0.681036E-05
  0.170000E+02  0.500000E+00  0.110000E+02  0.169112E-04 -0.391533E-12 -0.835446E-05
  0.170000E+02  0.500000E+00  0.130000E+02  0.175570E-04 -0.168551E-12 -0.991473E-05
  0.170000E+02  0.500000E+00  0.150000E+02  0.183428E-04 -0.583151E-13 -0.114914E-04
  0.170000E+02  0.500000E+00  0.170000E+02  0.192854E-04 -0.109242E-12 -0.130825E-04
  0.170000E+02  0.500000E+00  0.190000E+02  0.204055E-04  0.315452E-13 -0.146832E-04
  0.170000E+02  0.500000E+00  0.210000E+02  0.217278E-04  0.128406E-12 -0.162845E-04
  0.170000E+02  0.500000E+00  0.230000E+02  0.232816E-04  0.242701E-12 -0.178713E-04
  0.170000E+02  0.500000E+00  0.250000E+02  0.251004E-04  0.336036E-12 -0.194203E-04
  0.170000E+02  0.500000E+00  0.270000E+02  0.272221E-04 -0.105861E-12 -0.208964E-04
  0.170000E+02  0.500000E+00  0.290000E+02  0.296867E-04 -0.165293E-12 -0.222487E-04
  0.170000E+02  0.500000E+00  0.310000E+02  0.325328E-04 -0.649147E-14 -0.234047E-04
  0.170000E+02  0.500000E+00  0.330000E+02  0.357907E-04 -0.277883E-12 -0.242643E-04
  0.170000E+02  0.500000E+00  0.350000E+02  0.394699E-04 -0.997229E-13 -0.246950E-04
  0.170000E+02  0.500000E+00  0.370000E+02  0.435407E-04 -0.247877E-13 -0.245298E-04
  0.170000E+02  0.500000E+00  0.390000E+02  0.479093E-04 -0.300913E-13 -0.235766E-04
  0.170000E+02  0.500000E+00  0.410000E+02  0.523931E-04  0.209299E-12 -0.216431E-04
  0.170000E+02  0.500000E+00  0.430000E+02  0.567069E-04  0.142955E-12 -0.185836E-04
  0.170000E+02  0.500000E+00  0.450000E+02  0.604772E-04  0.710709E-13 -0.143607E-04
  0.170000E+02  0.500000E+00  0.470000E+02  0.632965E-04  0.447987E-12 -0.910188E-05
  0.170000E+02  0.500000E+00  0.490000E+02  0.648100E-04  0.298847E-12 -0.312061E-05
  0.190000E+02  0.500000E+00  0.100000E+01  0.168538E-04  0.957319E-13 -0.702179E-06
  0.190000E+02  0.500000E+00  0.300000E+01  0.169529E-04  0.399853E-13 -0.210748E-05
  0.190000E+02  0.500000E+00  0.500000E+01  0.171529E-04 -0.116434E-12 -0.351556E-05
  0.190000E+02  0.500000E+00  0.700000E+01  0.174569E-04 -0.109359E-13 -0.492798E-05
  0.190000E+02  0.500000E+00  0.900000E+01  0.178703E-04  0.186422E-13 -0.634585E-05
  0.190000E+02  0.500000E+00  0.110000E+02  0.184003E-04 -0.185548E-12 -0.776946E-05
  0.190000E+02  0.500000E+00  0.130000E+02  0.190562E-04 -0.328846E-12 -0.919796E-05
  0.190000E+02  0.500000E+00  0.150000E+02  0.198499E-04 -0.216069E-12 -0.106288E-04
  0.190000E+02  0.500000E+00  0.170000E+02  0.207955E-04 -0.151419E-12 -0.120569E-04
  0.190000E+02  0.500000E+00  0.190000E+02  0.219100E-04 -0.109475E-12 -0.134742E-04
  0.190000E+02  0.500000E+00  0.210000E+02  0.232130E-04  0.823086E-13 -0.148681E-04
  0.190000E+02  0.500000E+00  0.230000E+02  0.247269E-04  0.566289E-13 -0.162201E-04
  0.190000E+02  0.500000E+00  0.250000E+02  0.264759E-04  0.301266E-12 -0.175037E-04
  0.190000E+02  0.500000E+00  0.270000E+02  0.284848E-04  0.101260E-12 -0.186824E-04
  0.190000E+02  0.500000E+00  0.290000E+02  0.307770E-04 -0.185269E-12 -0.197060E-04
  0.190000E+02  0.500000E+00  0.310000E+02  0.333700E-04  0.515561E-13 -0.205082E-04
  0.190000E+02  0.500000E+00  0.330000E+02  0.362692E-04 -0.259126E-15 -0.210037E-04
  0.190000E+02  0.500000E+00  0.350000E+02  0.394579E-04 -0.500948E-13 -0.210877E-04
  0.190000E+02  0.500000E+00  0.370000E+02  0.428852E-04 -0.652454E-13 -0.206390E-04
  0.190000E+02  0.500000E+00  0.390000E+02  0.464525E-04 -0.279228E-13 -0.195316E-04
  0.190000E+02  0.500000E+00  0.410000E+02  0.500025E-04  0.133646E-13 -0.176543E-04
  0.190000E+02  0.500000E+00  0.430000E+02  0.533197E-04  0.697145E-13 -0.149414E-04
  0.190000E+02  0.500000E+00  0.450000E+02  0.561463E-04  0.712128E-13 -0.114059E-04
  0.190000E+02  0.500000E+00  0.470000E+02  0.582186E-04  0.171931E-12 -0.716511E-05
  0.190000E+02  0.500000E+00  0.490000E+02  0.593173E-04  0.261516E-12 -0.244508E-05
  0.210000E+02  0.500000E+00  0.100000E+01  0.182087E-04  0.111181E-12 -0.652528E-06
  0.210000E+02  0.500000E+00  0.300000E+01  0.183089E-04  0.161971E-12 -0.195776E-05
  0.210000E+02  0.500000E+00  0.500000E+01  0.185109E-04  0.904703E-13 -0.326343E-05
  0.210000E+02  0.500000E+00  0.700000E+01  0.188175E-04 -0.600888E-13 -0.456946E-05
  0.210000E+02  0.500000E+00  0.900000E+01  0.192332E-04  0.145096E-12 -0.587519E-05
  0.210000E+02  0.500000E+00  0.110000E+02  0.197643E-04 -0.143110E-13 -0.717904E-05
  0.210000E+02  0.500000E+00  0.130000E+02  0.204186E-04 -0.512062E-12 -0.847813E-05
  0.210000E+02  0.500000E+00  0.150000E+02  0.212059E-04 -0.162358E-12 -0.976773E-05
  0.210000E+02  0.500000E+00  0.170000E+02  0.221375E-04 -0.110277E-12 -0.110407E-04
  0.210000E+02  0.500000E+00  0.190000E+02  0.232267E-04 -0.168789E-12 -0.122867E-04
  0.210000E+02  0.500000E+00  0.210000E+02  0.244882E-04  0.152084E-12 -0.134910E-04
  0.210000E+02  0.500000E+00  0.230000E+02  0.259377E-04  0.380027E-13 -0.146337E-04
  0.210000E+02  0.500000E+00  0.250000E+02  0.275910E-04 -0.477174E-15 -0.156878E-04
  0.210000E+02  0.500000E+00  0.270000E+02  0.294625E-04  0.669556E-13 -0.166179E-04
  0.210000E+02  0.500000E+00  0.290000E+02  0.315626E-04  0.574281E-13 -0.173782E-04
  0.210000E+02  0.500000E+00  0.310000E+02  0.338941E-04  0.135820E-12 -0.179115E-04
  0.210000E+02  0.500000E+00  0.330000E+02  0.364468E-04  0.365112E-13 -0.181486E-04
  0.210000E+02  0.500000E+00  0.350000E+02  0.391910E-04 -0.288829E-13 -0.180100E-04
  0.210000E+02  0.500000E+00  0.370000E+02  0.420694E-04  0.285549E-13 -0.174109E-04
  0.210000E+02  0.500000E+00  0.390000E+02  0.449912E-04  0.173523E-12 -0.162707E-04
  0.210000E+02  0.500000E+00  0.410000E+02  0.478282E-04 -0.258389E-13 -0.145281E-04
  0.210000E+02  0.500000E+00  0.430000E+02  0.504193E-04  0.608833E-13 -0.121593E-04
  0.210000E+02  0.500000E+00  0.450000E+02  0.525843E-04  0.923677E-13 -0.919644E-05
  0.210000E+02  0.500000E+00  0.470000E+02  0.541479E-04 -0.807387E-13 -0.573877E-05
  0.210000E+02  0.500000E+00  0.490000E+02  0.549690E-04  0.254254E-12 -0.195153E-05
  0.230000E+02  0.500000E+00  0.100000E+01  0.194638E-04  0.312357E-12 -0.602664E-06
  0.230000E+02  0.500000E+00  0.300000E+01  0.195637E-04  0.300566E-12 -0.180750E-05
  0.230000E+02  0.500000E+00  0.500000E+01  0.197647E-04  0.235019E-12 -0.301075E-05
  0.230000E+02  0.500000E+00  0.700000E+01  0.200694E-04  0.492906E-13 -0.421094E-05
  0.230000E+02  0.500000E+00  0.900000E+01  0.204813E-04  0.262504E-12 -0.540598E-05
  0.230000E+02  0.500000E+00  0.110000E+02  0.210057E-04 -0.745461E-13 -0.659280E-05
  0.230000E+02  0.500000E+00  0.130000E+02  0.216487E-04 -0.470946E-12 -0.776697E-05
  0.230000E+02  0.500000E+00  0.150000E+02  0.224181E-04 -0.297939E-12 -0.892229E-05
  0.230000E+02  0.500000E+00  0.170000E+02  0.233225E-04 -0.277666E-12 -0.100502E-04
  0.230000E+02  0.500000E+00  0.190000E+02  0.243715E-04 -0.422362E-12 -0.111390E-04
  0.230000E+02  0.500000E+00  0.210000E+02  0.255754E-04 -0.163274E-13 -0.121733E-04
  0.230000E+02  0.500000E+00  0.230000E+02  0.269442E-04  0.193736E-12 -0.131331E-04
  0.230000E+02  0.500000E+00  0.250000E+02  0.284867E-04  0.615419E-13 -0.139926E-04
  0.230000E+02  0.500000E+00  0.270000E+02  0.302092E-04  0.795537E-13 -0.147192E-04
  0.230000E+02  0.500000E+00  0.290000E+02  0.321127E-04  0.403602E-13 -0.152732E-04
  0.230000E+02  0.500000E+00  0.310000E+02  0.341906E-04  0.332555E-12 -0.156071E-04
  0.230000E+02  0.500000E+00  0.330000E+02  0.364240E-04  0.293317E-12 -0.156668E-04
  0.230000E+02  0.500000E+00  0.350000E+02  0.387780E-04 -0.101243E-12 -0.153936E-04
  0.230000E+02  0.500000E+00  0.370000E+02  0.411971E-04 -0.515150E-13 -0.147296E-04
  0.230000E+02  0.500000E+00  0.390000E+02  0.436026E-04  0.169774E-12 -0.136248E-04
  0.230000E+02  0.500000E+00  0.410000E+02  0.458922E-04  0.150597E-12 -0.120474E-04
  0.230000E+02  0.500000E+00  0.430000E+02  0.479458E-04  0.407767E-13 -0.999535E-05
  0.230000E+02  0.500000E+00  0.450000E+02  0.496355E-04 -0.274616E-13 -0.750575E-05
  0.230000E+02  0.500000E+00  0.470000E+02  0.508416E-04 -0.161768E-12 -0.465991E-05
  0.230000E+02  0.500000E+00  0.490000E+02  0.514703E-04  0.219485E-12 -0.158045E-05
  0.250000E+02  0.500000E+00  0.100000E+01  0.206195E-04  0.326755E-12 -0.553251E-06
  0.250000E+02  0.500000E+00  0.300000E+01  0.207178E-04  0.495905E-12 -0.165871E-05
  0.250000E+02  0.500000E+00  0.500000E+01  0.209154E-04  0.312906E-12 -0.276091E-05
  0.250000E+02  0.500000E+00  0.700000E+01  0.212143E-04  0.254650E-12 -0.385727E-05
  0.250000E+02  0.500000E+00  0.900000E+01  0.216175E-04  0.419450E-12 -0.494456E-05
  0.250000E+02  0.500000E+00  0.110000E+02  0.221287E-04 -0.160451E-12 -0.601860E-05
  0.250000E+02  0.500000E+00  0.130000E+02  0.227529E-04 -0.512631E-12 -0.707391E-05
  0.250000E+02  0.500000E+00  0.150000E+02  0.234956E-04 -0.222110E-12 -0.810329E-05
  0.250000E+02  0.500000E+00  0.170000E+02  0.243630E-04 -0.249320E-12 -0.909740E-05
  0.250000E+02  0.500000E+00  0.190000E+02  0.253615E-04 -0.314272E-12 -0.100442E-04
  0.250000E+02  0.500000E+00  0.210000E+02  0.264974E-04  0.263916E-13 -0.109284E-04
  0.250000E+02  0.500000E+00  0.230000E+02  0.277761E-04  0.773350E-13 -0.117307E-04
  0.250000E+02  0.500000E+00  0.250000E+02  0.292010E-04 -0.211073E-13 -0.124276E-04
  0.250000E+02  0.500000E+00  0.270000E+02  0.307722E-04  0.132747E-12 -0.129905E-04
  0.250000E+02  0.500000E+00  0.290000E+02  0.324847E-04  0.993690E-13 -0.133858E-04
  0.250000E+02  0.500000E+00  0.310000E+02  0.343261E-04  0.207300E-12 -0.135753E-04
  0.250000E+02  0.500000E+00  0.330000E+02  0.362736E-04  0.342094E-12 -0.135177E-04
  0.250000E+02  0.500000E+00  0.350000E+02  0.382918E-04 -0.128138E-12 -0.131705E-04
  0.250000E+02  0.500000E+00  0.370000E+02  0.403303E-04 -0.114479E-12 -0.124951E-04
  0.250000E+02  0.500000E+00  0.390000E+02  0.423229E-04  0.162086E-12 -0.114613E-04
  0.250000E+02  0.500000E+00  0.410000E+02  0.441891E-04  0.368918E-12 -0.100550E-04
  0.250000E+02  0.500000E+00  0.430000E+02  0.458386E-04  0.138495E-12 -0.828460E-05
  0.250000E+02  0.500000E+00  0.450000E+02  0.471793E-04 -0.972584E-13 -0.618615E-05
  0.250000E+02  0.500000E+00  0.470000E+02  0.481273E-04  0.102661E-12 -0.382540E-05
  0.250000E+02  0.500000E+00  0.490000E+02  0.486188E-04  0.272201E-12 -0.129476E-05
  0.270000E+02  0.500000E+00  0.100000E+01  0.216772E-04  0.121433E-12 -0.504842E-06
  0.270000E+02  0.500000E+00  0.300000E+01  0.217729E-04  0.397246E-12 -0.151305E-05
  0.270000E+02  0.500000E+00  0.500000E+01  0.219652E-04  0.165708E-12 -0.251670E-05
  0.270000E+02  0.500000E+00  0.700000E+01  0.222554E-04  0.941638E-13 -0.351236E-05
  0.270000E+02  0.500000E+00  0.900000E+01  0.226458E-04  0.375368E-12 -0.449597E-05
  0.270000E+02  0.500000E+00  0.110000E+02  0.231391E-04 -0.143817E-12 -0.546258E-05
  0.270000E+02  0.500000E+00  0.130000E+02  0.237388E-04 -0.471558E-12 -0.640605E-05
  0.270000E+02  0.500000E+00  0.150000E+02  0.244486E-04 -0.295958E-12 -0.731867E-05
  0.270000E+02  0.500000E+00  0.170000E+02  0.252724E-04 -0.207998E-12 -0.819087E-05
  0.270000E+02  0.500000E+00  0.190000E+02  0.262138E-04 -0.412621E-13 -0.901074E-05
  0.270000E+02  0.500000E+00  0.210000E+02  0.272761E-04 -0.131544E-12 -0.976369E-05
  0.270000E+02  0.500000E+00  0.230000E+02  0.284607E-04  0.125559E-12 -0.104321E-04
  0.270000E+02  0.500000E+00  0.250000E+02  0.297672E-04 -0.266871E-13 -0.109949E-04
  0.270000E+02  0.500000E+00  0.270000E+02  0.311914E-04 -0.793743E-13 -0.114277E-04
  0.270000E+02  0.500000E+00  0.290000E+02  0.327246E-04  0.406549E-12 -0.117029E-04
  0.270000E+02  0.500000E+00  0.310000E+02  0.343511E-04  0.317776E-12 -0.117904E-04
  0.270000E+02  0.500000E+00  0.330000E+02  0.360473E-04  0.178912E-12 -0.116589E-04
  0.270000E+02  0.500000E+00  0.350000E+02  0.377798E-04 -0.982632E-13 -0.112786E-04
  0.270000E+02  0.500000E+00  0.370000E+02  0.395042E-04 -0.169510E-12 -0.106240E-04
  0.270000E+02  0.500000E+00  0.390000E+02  0.411660E-04  0.159704E-12 -0.967797E-05
  0.270000E+02  0.500000E+00  0.410000E+02  0.427017E-04  0.420948E-12 -0.843644E-05
  0.270000E+02  0.500000E+00  0.430000E+02  0.440430E-04  0.161854E-12 -0.691234E-05
  0.270000E+02  0.500000E+00  0.450000E+02  0.451224E-04 -0.480305E-13 -0.513837E-05
  0.270000E+02  0.500000E+00  0.470000E+02  0.458800E-04  0.115160E-12 -0.316750E-05
  0.270000E+02  0.500000E+00  0.490000E+02  0.462709E-04  0.366554E-12 -0.107034E-05
  0.290000E+02  0.500000E+00  0.100000E+01  0.226393E-04 -0.710820E-13 -0.457874E-06