title="2d yz vectors"
variables="y","z","vy","vz"
zone i=    25, j=     1, T=" 0.10000E+01"
zone i=    25, j=     1, T=" 0.20000E+01"
zone i=    25, j=     1, T=" 0.30000E+01"
zone i=    25, j=     1, T=" 0.40000E+01"
zone i=    25, j=     1, T=" 0.50000E+01"
zone i=    25, j=     1, T=" 0.60000E+01"
zone i=    25, j=     1, T=" 0.70000E+01"
zone i=    25, j=     1, T=" 0.80000E+01"
zone i=    25, j=     1, T=" 0.90000E+01"
zone i=    25, j=     1, T=" 0.10000E+02"
zone i=    25, j=     1, T=" 0.11000E+02"
zone i=    25, j=     1, T=" 0.12000E+02"
zone i=    25, j=     1, T=" 0.13000E+02"
zone i=    25, j=     1, T=" 0.14000E+02"
zone i=    25, j=     1, T=" 0.15000E+02"
zone i=    25, j=     1, T=" 0.16000E+02"
zone i=    25, j=     1, T=" 0.17000E+02"
zone i=    25, j=     1, T=" 0.18000E+02"
zone i=    25, j=     1, T=" 0.19000E+02"
zone i=    25, j=     1, T=" 0.20000E+02"
