          Title="T,C,H at t=   0.1000E+01 days"
          variables="x","y","z","T","C","H"
          zone i=      26, j=       2, k=     201, T="T,C,H"
   0.000000E+00   0.000000E+00   0.000000E+00   0.000000E+00   0.000000E+00  -0.199729E+02
   0.000000E+00   0.000000E+00   0.200000E+01   0.000000E+00   0.000000E+00  -0.199568E+02
   0.000000E+00   0.000000E+00   0.400000E+01   0.000000E+00   0.000000E+00  -0.199394E+02
   0.000000E+00   0.000000E+00   0.600000E+01   0.000000E+00   0.000000E+00  -0.199001E+02
   0.000000E+00   0.000000E+00   0.800000E+01   0.000000E+00   0.000000E+00  -0.198440E+02
   0.000000E+00   0.000000E+00   0.100000E+02   0.000000E+00   0.000000E+00  -0.197707E+02
   0.000000E+00   0.000000E+00   0.120000E+02   0.000000E+00   0.000000E+00  -0.196798E+02
   0.000000E+00   0.000000E+00   0.140000E+02   0.000000E+00   0.000000E+00  -0.195704E+02
   0.000000E+00   0.000000E+00   0.160000E+02   0.000000E+00   0.000000E+00  -0.194415E+02
   0.000000E+00   0.000000E+00   0.180000E+02   0.000000E+00   0.000000E+00  -0.192918E+02
   0.000000E+00   0.000000E+00   0.200000E+02   0.000000E+00   0.000000E+00  -0.191197E+02
   0.000000E+00   0.000000E+00   0.220000E+02   0.000000E+00   0.000000E+00  -0.189233E+02
   0.000000E+00   0.000000E+00   0.240000E+02   0.000000E+00   0.000000E+00  -0.186999E+02
   0.000000E+00   0.000000E+00   0.260000E+02   0.000000E+00   0.000000E+00  -0.184464E+02
   0.000000E+00   0.000000E+00   0.280000E+02   0.000000E+00   0.000000E+00  -0.181588E+02
   0.000000E+00   0.000000E+00   0.300000E+02   0.000000E+00   0.000000E+00  -0.178317E+02
   0.000000E+00   0.000000E+00   0.320000E+02   0.000000E+00   0.000000E+00  -0.174584E+02
   0.000000E+00   0.000000E+00   0.340000E+02   0.000000E+00   0.000000E+00  -0.170293E+02
   0.000000E+00   0.000000E+00   0.360000E+02   0.000000E+00   0.000000E+00  -0.165313E+02
   0.000000E+00   0.000000E+00   0.380000E+02   0.000000E+00   0.000000E+00  -0.159450E+02
   0.000000E+00   0.000000E+00   0.400000E+02   0.000000E+00   0.000000E+00  -0.152406E+02
   0.000000E+00   0.000000E+00   0.420000E+02   0.000000E+00   0.000000E+00  -0.143686E+02
   0.000000E+00   0.000000E+00   0.440000E+02   0.000000E+00   0.000000E+00  -0.132396E+02
   0.000000E+00   0.000000E+00   0.460000E+02   0.000000E+00   0.000000E+00  -0.116392E+02
   0.000000E+00   0.000000E+00   0.480000E+02   0.000000E+00   0.000000E+00  -0.923780E+01
   0.000000E+00   0.000000E+00   0.500000E+02   0.000000E+00   0.000000E+00   0.000000E+00
   0.000000E+00   0.100000E+01   0.000000E+00   0.000000E+00   0.000000E+00  -0.199729E+02
   0.000000E+00   0.100000E+01   0.200000E+01   0.000000E+00   0.000000E+00  -0.199568E+02
   0.000000E+00   0.100000E+01   0.400000E+01   0.000000E+00   0.000000E+00  -0.199394E+02
   0.000000E+00   0.100000E+01   0.600000E+01   0.000000E+00   0.000000E+00  -0.199001E+02
   0.000000E+00   0.100000E+01   0.800000E+01   0.000000E+00   0.000000E+00  -0.198440E+02
   0.000000E+00   0.100000E+01   0.100000E+02   0.000000E+00   0.000000E+00  -0.197707E+02
   0.000000E+00   0.100000E+01   0.120000E+02   0.000000E+00   0.000000E+00  -0.196798E+02
   0.000000E+00   0.100000E+01   0.140000E+02   0.000000E+00   0.000000E+00  -0.195704E+02
   0.000000E+00   0.100000E+01   0.160000E+02   0.000000E+00   0.000000E+00  -0.194415E+02
   0.000000E+00   0.100000E+01   0.180000E+02   0.000000E+00   0.000000E+00  -0.192918E+02
   0.000000E+00   0.100000E+01   0.200000E+02   0.000000E+00   0.000000E+00  -0.191197E+02
   0.000000E+00   0.100000E+01   0.220000E+02   0.000000E+00   0.000000E+00  -0.189233E+02
   0.000000E+00   0.100000E+01   0.240000E+02   0.000000E+00   0.000000E+00  -0.186999E+02
   0.000000E+00   0.100000E+01   0.260000E+02   0.000000E+00   0.000000E+00  -0.184464E+02
   0.000000E+00   0.100000E+01   0.280000E+02   0.000000E+00   0.000000E+00  -0.181588E+02
   0.000000E+00   0.100000E+01   0.300000E+02   0.000000E+00   0.000000E+00  -0.178317E+02
   0.000000E+00   0.100000E+01   0.320000E+02   0.000000E+00   0.000000E+00  -0.174584E+02
   0.000000E+00   0.100000E+01   0.340000E+02   0.000000E+00   0.000000E+00  -0.170293E+02
   0.000000E+00   0.100000E+01   0.360000E+02   0.000000E+00   0.000000E+00  -0.165313E+02
   0.000000E+00   0.100000E+01   0.380000E+02   0.000000E+00   0.000000E+00  -0.159450E+02
   0.000000E+00   0.100000E+01   0.400000E+02   0.000000E+00   0.000000E+00  -0.152406E+02
   0.000000E+00   0.100000E+01   0.420000E+02   0.000000E+00   0.000000E+00  -0.143686E+02
   0.000000E+00   0.100000E+01   0.440000E+02   0.000000E+00   0.000000E+00  -0.132396E+02
   0.000000E+00   0.100000E+01   0.460000E+02   0.000000E+00   0.000000E+00  -0.116392E+02
   0.000000E+00   0.100000E+01   0.480000E+02   0.000000E+00   0.000000E+00  -0.923780E+01
   0.000000E+00   0.100000E+01   0.500000E+02   0.000000E+00   0.000000E+00   0.000000E+00
   0.200000E+01   0.000000E+00   0.000000E+00   0.000000E+00   0.000000E+00  -0.199889E+02
   0.200000E+01   0.000000E+00   0.200000E+01   0.000000E+00   0.000000E+00  -0.199729E+02
   0.200000E+01   0.000000E+00   0.400000E+01   0.000000E+00   0.000000E+00  -0.199478E+02
   0.200000E+01   0.000000E+00   0.600000E+01   0.000000E+00   0.000000E+00  -0.199086E+02
   0.200000E+01   0.000000E+00   0.800000E+01   0.000000E+00   0.000000E+00  -0.198525E+02
   0.200000E+01   0.000000E+00   0.100000E+02   0.000000E+00   0.000000E+00  -0.197795E+02
   0.200000E+01   0.000000E+00   0.120000E+02   0.000000E+00   0.000000E+00  -0.196890E+02
   0.200000E+01   0.000000E+00   0.140000E+02   0.000000E+00   0.000000E+00  -0.195801E+02
   0.200000E+01   0.000000E+00   0.160000E+02   0.000000E+00   0.000000E+00  -0.194518E+02
   0.200000E+01   0.000000E+00   0.180000E+02   0.000000E+00   0.000000E+00  -0.193029E+02
   0.200000E+01   0.000000E+00   0.200000E+02   0.000000E+00   0.000000E+00  -0.191318E+02
   0.200000E+01   0.000000E+00   0.220000E+02   0.000000E+00   0.000000E+00  -0.189366E+02
   0.200000E+01   0.000000E+00   0.240000E+02   0.000000E+00   0.000000E+00  -0.187148E+02
   0.200000E+01   0.000000E+00   0.260000E+02   0.000000E+00   0.000000E+00  -0.184632E+02
   0.200000E+01   0.000000E+00   0.280000E+02   0.000000E+00   0.000000E+00  -0.181782E+02
   0.200000E+01   0.000000E+00   0.300000E+02   0.000000E+00   0.000000E+00  -0.178545E+02
   0.200000E+01   0.000000E+00   0.320000E+02   0.000000E+00   0.000000E+00  -0.174857E+02
   0.200000E+01   0.000000E+00   0.340000E+02   0.000000E+00   0.000000E+00  -0.170629E+02
   0.200000E+01   0.000000E+00   0.360000E+02   0.000000E+00   0.000000E+00  -0.165739E+02
   0.200000E+01   0.000000E+00   0.380000E+02   0.000000E+00   0.000000E+00  -0.160012E+02
   0.200000E+01   0.000000E+00   0.400000E+02   0.000000E+00   0.000000E+00  -0.153188E+02
   0.200000E+01   0.000000E+00   0.420000E+02   0.000000E+00   0.000000E+00  -0.144855E+02
   0.200000E+01   0.000000E+00   0.440000E+02   0.000000E+00   0.000000E+00  -0.134299E+02
   0.200000E+01   0.000000E+00   0.460000E+02   0.000000E+00   0.000000E+00  -0.120389E+02
   0.200000E+01   0.000000E+00   0.480000E+02   0.000000E+00   0.000000E+00  -0.984945E+01
   0.200000E+01   0.000000E+00   0.500000E+02   0.000000E+00   0.000000E+00  -0.924324E+01
   0.200000E+01   0.100000E+01   0.000000E+00   0.000000E+00   0.000000E+00  -0.199889E+02
   0.200000E+01   0.100000E+01   0.200000E+01   0.000000E+00   0.000000E+00  -0.199729E+02
   0.200000E+01   0.100000E+01   0.400000E+01   0.000000E+00   0.000000E+00  -0.199478E+02
   0.200000E+01   0.100000E+01   0.600000E+01   0.000000E+00   0.000000E+00  -0.199086E+02
   0.200000E+01   0.100000E+01   0.800000E+01   0.000000E+00   0.000000E+00  -0.198525E+02
   0.200000E+01   0.100000E+01   0.100000E+02   0.000000E+00   0.000000E+00  -0.197795E+02
   0.200000E+01   0.100000E+01   0.120000E+02   0.000000E+00   0.000000E+00  -0.196890E+02
   0.200000E+01   0.100000E+01   0.140000E+02   0.000000E+00   0.000000E+00  -0.195801E+02
   0.200000E+01   0.100000E+01   0.160000E+02   0.000000E+00   0.000000E+00  -0.194518E+02
   0.200000E+01   0.100000E+01   0.180000E+02   0.000000E+00   0.000000E+00  -0.193029E+02
   0.200000E+01   0.100000E+01   0.200000E+02   0.000000E+00   0.000000E+00  -0.191318E+02
   0.200000E+01   0.100000E+01   0.220000E+02   0.000000E+00   0.000000E+00  -0.189366E+02
   0.200000E+01   0.100000E+01   0.240000E+02   0.000000E+00   0.000000E+00  -0.187148E+02
   0.200000E+01   0.100000E+01   0.260000E+02   0.000000E+00   0.000000E+00  -0.184632E+02
   0.200000E+01   0.100000E+01   0.280000E+02   0.000000E+00   0.000000E+00  -0.181782E+02
   0.200000E+01   0.100000E+01   0.300000E+02   0.000000E+00   0.000000E+00  -0.178545E+02
   0.200000E+01   0.100000E+01   0.320000E+02   0.000000E+00   0.000000E+00  -0.174857E+02
   0.200000E+01   0.100000E+01   0.340000E+02   0.000000E+00   0.000000E+00  -0.170629E+02
   0.200000E+01   0.100000E+01   0.360000E+02   0.000000E+00   0.000000E+00  -0.165739E+02
   0.200000E+01   0.100000E+01   0.380000E+02   0.000000E+00   0.000000E+00  -0.160012E+02
   0.200000E+01   0.100000E+01   0.400000E+02   0.000000E+00   0.000000E+00  -0.153188E+02
   0.200000E+01   0.100000E+01   0.420000E+02   0.000000E+00   0.000000E+00  -0.144855E+02
   0.200000E+01   0.100000E+01   0.440000E+02   0.000000E+00   0.000000E+00  -0.134299E+02
   0.200000E+01   0.100000E+01   0.460000E+02   0.000000E+00   0.000000E+00  -0.120389E+02
   0.200000E+01   0.100000E+01   0.480000E+02   0.000000E+00   0.000000E+00  -0.984945E+01
   0.200000E+01   0.100000E+01   0.500000E+02   0.000000E+00   0.000000E+00  -0.924324E+01
   0.400000E+01   0.000000E+00   0.000000E+00   0.000000E+00   0.000000E+00  -0.200061E+02
   0.400000E+01   0.000000E+00   0.200000E+01   0.000000E+00   0.000000E+00  -0.199979E+02
   0.400000E+01   0.000000E+00   0.400000E+01   0.000000E+00   0.000000E+00  -0.199732E+02
   0.400000E+01   0.000000E+00   0.600000E+01   0.000000E+00   0.000000E+00  -0.199335E+02
   0.400000E+01   0.000000E+00   0.800000E+01   0.000000E+00   0.000000E+00  -0.198779E+02
   0.400000E+01   0.000000E+00   0.100000E+02   0.000000E+00   0.000000E+00  -0.198058E+02
   0.400000E+01   0.000000E+00   0.120000E+02   0.000000E+00   0.000000E+00  -0.197164E+02
   0.400000E+01   0.000000E+00   0.140000E+02   0.000000E+00   0.000000E+00  -0.196090E+02
   0.400000E+01   0.000000E+00   0.160000E+02   0.000000E+00   0.000000E+00  -0.194827E+02
   0.400000E+01   0.000000E+00   0.180000E+02   0.000000E+00   0.000000E+00  -0.193361E+02
   0.400000E+01   0.000000E+00   0.200000E+02   0.000000E+00   0.000000E+00  -0.191680E+02
   0.400000E+01   0.000000E+00   0.220000E+02   0.000000E+00   0.000000E+00  -0.189764E+02
   0.400000E+01   0.000000E+00   0.240000E+02   0.000000E+00   0.000000E+00  -0.187591E+02
   0.400000E+01   0.000000E+00   0.260000E+02   0.000000E+00   0.000000E+00  -0.185133E+02
   0.400000E+01   0.000000E+00   0.280000E+02   0.000000E+00   0.000000E+00  -0.182357E+02
   0.400000E+01   0.000000E+00   0.300000E+02   0.000000E+00   0.000000E+00  -0.179217E+02
   0.400000E+01   0.000000E+00   0.320000E+02   0.000000E+00   0.000000E+00  -0.175659E+02
   0.400000E+01   0.000000E+00   0.340000E+02   0.000000E+00   0.000000E+00  -0.171610E+02
   0.400000E+01   0.000000E+00   0.360000E+02   0.000000E+00   0.000000E+00  -0.166976E+02
   0.400000E+01   0.000000E+00   0.380000E+02   0.000000E+00   0.000000E+00  -0.161628E+02
   0.400000E+01   0.000000E+00   0.400000E+02   0.000000E+00   0.000000E+00  -0.155400E+02
   0.400000E+01   0.000000E+00   0.420000E+02   0.000000E+00   0.000000E+00  -0.148069E+02
   0.400000E+01   0.000000E+00   0.440000E+02   0.000000E+00   0.000000E+00  -0.139400E+02
   0.400000E+01   0.000000E+00   0.460000E+02   0.000000E+00   0.000000E+00  -0.129202E+02
   0.400000E+01   0.000000E+00   0.480000E+02   0.000000E+00   0.000000E+00  -0.120552E+02
   0.400000E+01   0.000000E+00   0.500000E+02   0.000000E+00   0.000000E+00  -0.116610E+02
   0.400000E+01   0.100000E+01   0.000000E+00   0.000000E+00   0.000000E+00  -0.200061E+02
   0.400000E+01   0.100000E+01   0.200000E+01   0.000000E+00   0.000000E+00  -0.199979E+02
   0.400000E+01   0.100000E+01   0.400000E+01   0.000000E+00   0.000000E+00  -0.199732E+02
   0.400000E+01   0.100000E+01   0.600000E+01   0.000000E+00   0.000000E+00  -0.199335E+02
   0.400000E+01   0.100000E+01   0.800000E+01   0.000000E+00   0.000000E+00  -0.198779E+02
   0.400000E+01   0.100000E+01   0.100000E+02   0.000000E+00   0.000000E+00  -0.198058E+02
   0.400000E+01   0.100000E+01   0.120000E+02   0.000000E+00   0.000000E+00  -0.197164E+02
   0.400000E+01   0.100000E+01   0.140000E+02   0.000000E+00   0.000000E+00  -0.196090E+02
   0.400000E+01   0.100000E+01   0.160000E+02   0.000000E+00   0.000000E+00  -0.194827E+02
   0.400000E+01   0.100000E+01   0.180000E+02   0.000000E+00   0.000000E+00  -0.193361E+02
   0.400000E+01   0.100000E+01   0.200000E+02   0.000000E+00   0.000000E+00  -0.191680E+02
   0.400000E+01   0.100000E+01   0.220000E+02   0.000000E+00   0.000000E+00  -0.189764E+02
   0.400000E+01   0.100000E+01   0.240000E+02   0.000000E+00   0.000000E+00  -0.187591E+02
   0.400000E+01   0.100000E+01   0.260000E+02   0.000000E+00   0.000000E+00  -0.185133E+02
   0.400000E+01   0.100000E+01   0.280000E+02   0.000000E+00   0.000000E+00  -0.182357E+02
   0.400000E+01   0.100000E+01   0.300000E+02   0.000000E+00   0.000000E+00  -0.179217E+02
   0.400000E+01   0.100000E+01   0.320000E+02   0.000000E+00   0.000000E+00  -0.175659E+02
   0.400000E+01   0.100000E+01   0.340000E+02   0.000000E+00   0.000000E+00  -0.171610E+02
   0.400000E+01   0.100000E+01   0.360000E+02   0.000000E+00   0.000000E+00  -0.166976E+02
   0.400000E+01   0.100000E+01   0.380000E+02   0.000000E+00   0.000000E+00  -0.161628E+02
   0.400000E+01   0.100000E+01   0.400000E+02   0.000000E+00   0.000000E+00  -0.155400E+02
   0.400000E+01   0.100000E+01   0.420000E+02   0.000000E+00   0.000000E+00  -0.148069E+02
   0.400000E+01   0.100000E+01   0.440000E+02   0.000000E+00   0.000000E+00  -0.139400E+02
   0.400000E+01   0.100000E+01   0.460000E+02   0.000000E+00   0.000000E+00  -0.129202E+02
   0.400000E+01   0.100000E+01   0.480000E+02   0.000000E+00   0.000000E+00  -0.120552E+02
   0.400000E+01   0.100000E+01   0.500000E+02   0.000000E+00   0.000000E+00  -0.116610E+02
   0.600000E+01   0.000000E+00   0.000000E+00   0.000000E+00   0.000000E+00  -0.200446E+02
   0.600000E+01   0.000000E+00   0.200000E+01   0.000000E+00   0.000000E+00  -0.200368E+02
   0.600000E+01   0.000000E+00   0.400000E+01   0.000000E+00   0.000000E+00  -0.200134E+02
   0.600000E+01   0.000000E+00   0.600000E+01   0.000000E+00   0.000000E+00  -0.199745E+02
   0.600000E+01   0.000000E+00   0.800000E+01   0.000000E+00   0.000000E+00  -0.199200E+02
   0.600000E+01   0.000000E+00   0.100000E+02   0.000000E+00   0.000000E+00  -0.198493E+02
   0.600000E+01   0.000000E+00   0.120000E+02   0.000000E+00   0.000000E+00  -0.197618E+02
   0.600000E+01   0.000000E+00   0.140000E+02   0.000000E+00   0.000000E+00  -0.196569E+02
   0.600000E+01   0.000000E+00   0.160000E+02   0.000000E+00   0.000000E+00  -0.195336E+02
   0.600000E+01   0.000000E+00   0.180000E+02   0.000000E+00   0.000000E+00  -0.193909E+02
   0.600000E+01   0.000000E+00   0.200000E+02   0.000000E+00   0.000000E+00  -0.192274E+02
   0.600000E+01   0.000000E+00   0.220000E+02   0.000000E+00   0.000000E+00  -0.190416E+02
   0.600000E+01   0.000000E+00   0.240000E+02   0.000000E+00   0.000000E+00  -0.188316E+02
   0.600000E+01   0.000000E+00   0.260000E+02   0.000000E+00   0.000000E+00  -0.185950E+02
   0.600000E+01   0.000000E+00   0.280000E+02   0.000000E+00   0.000000E+00  -0.183291E+02
   0.600000E+01   0.000000E+00   0.300000E+02   0.000000E+00   0.000000E+00  -0.180303E+02
   0.600000E+01   0.000000E+00   0.320000E+02   0.000000E+00   0.000000E+00  -0.176945E+02
   0.600000E+01   0.000000E+00   0.340000E+02   0.000000E+00   0.000000E+00  -0.173168E+02
   0.600000E+01   0.000000E+00   0.360000E+02   0.000000E+00   0.000000E+00  -0.168911E+02
   0.600000E+01   0.000000E+00   0.380000E+02   0.000000E+00   0.000000E+00  -0.164107E+02
   0.600000E+01   0.000000E+00   0.400000E+02   0.000000E+00   0.000000E+00  -0.158693E+02
   0.600000E+01   0.000000E+00   0.420000E+02   0.000000E+00   0.000000E+00  -0.152644E+02
   0.600000E+01   0.000000E+00   0.440000E+02   0.000000E+00   0.000000E+00  -0.146072E+02
   0.600000E+01   0.000000E+00   0.460000E+02   0.000000E+00   0.000000E+00  -0.139672E+02
   0.600000E+01   0.000000E+00   0.480000E+02   0.000000E+00   0.000000E+00  -0.134734E+02
   0.600000E+01   0.000000E+00   0.500000E+02   0.000000E+00   0.000000E+00  -0.132885E+02
   0.600000E+01   0.100000E+01   0.000000E+00   0.000000E+00   0.000000E+00  -0.200446E+02
   0.600000E+01   0.100000E+01   0.200000E+01   0.000000E+00   0.000000E+00  -0.200368E+02
   0.600000E+01   0.100000E+01   0.400000E+01   0.000000E+00   0.000000E+00  -0.200134E+02
   0.600000E+01   0.100000E+01   0.600000E+01   0.000000E+00   0.000000E+00  -0.199745E+02
   0.600000E+01   0.100000E+01   0.800000E+01   0.000000E+00   0.000000E+00  -0.199200E+02
   0.600000E+01   0.100000E+01   0.100000E+02   0.000000E+00   0.000000E+00  -0.198493E+02
   0.600000E+01   0.100000E+01   0.120000E+02   0.000000E+00   0.000000E+00  -0.197618E+02
   0.600000E+01   0.100000E+01   0.140000E+02   0.000000E+00   0.000000E+00  -0.196569E+02
   0.600000E+01   0.100000E+01   0.160000E+02   0.000000E+00   0.000000E+00  -0.195336E+02
   0.600000E+01   0.100000E+01   0.180000E+02   0.000000E+00   0.000000E+00  -0.193909E+02
   0.600000E+01   0.100000E+01   0.200000E+02   0.000000E+00   0.000000E+00  -0.192274E+02
   0.600000E+01   0.100000E+01   0.220000E+02   0.000000E+00   0.000000E+00  -0.190416E+02
   0.600000E+01   0.100000E+01   0.240000E+02   0.000000E+00   0.000000E+00  -0.188316E+02
   0.600000E+01   0.100000E+01   0.260000E+02   0.000000E+00   0.000000E+00  -0.185950E+02
   0.600000E+01   0.100000E+01   0.280000E+02   0.000000E+00   0.000000E+00  -0.183291E+02
   0.600000E+01   0.100000E+01   0.300000E+02   0.000000E+00   0.000000E+00  -0.180303E+02
   0.600000E+01   0.100000E+01   0.320000E+02   0.000000E+00   0.000000E+00  -0.176945E+02
   0.600000E+01   0.100000E+01   0.340000E+02   0.000000E+00   0.000000E+00  -0.173168E+02
   0.600000E+01   0.100000E+01   0.360000E+02   0.000000E+00   0.000000E+00  -0.168911E+02
   0.600000E+01   0.100000E+01   0.380000E+02   0.000000E+00   0.000000E+00  -0.164107E+02
   0.600000E+01   0.100000E+01   0.400000E+02   0.000000E+00   0.000000E+00  -0.158693E+02
   0.600000E+01   0.100000E+01   0.420000E+02   0.000000E+00   0.000000E+00  -0.152644E+02
   0.600000E+01   0.100000E+01   0.440000E+02   0.000000E+00   0.000000E+00  -0.146072E+02
   0.600000E+01   0.100000E+01   0.460000E+02   0.000000E+00   0.000000E+00  -0.139672E+02
   0.600000E+01   0.100000E+01   0.480000E+02   0.000000E+00   0.000000E+00  -0.134734E+02
   0.600000E+01   0.100000E+01   0.500000E+02   0.000000E+00   0.000000E+00  -0.132885E+02
   0.800000E+01   0.000000E+00   0.000000E+00   0.000000E+00   0.000000E+00  -0.200988E+02
   0.800000E+01   0.000000E+00   0.200000E+01   0.000000E+00   0.000000E+00  -0.200913E+02
   0.800000E+01   0.000000E+00   0.400000E+01   0.000000E+00   0.000000E+00  -0.200687E+02
   0.800000E+01   0.000000E+00   0.600000E+01   0.000000E+00   0.000000E+00  -0.200311E+02
   0.800000E+01   0.000000E+00   0.800000E+01   0.000000E+00   0.000000E+00  -0.199781E+02
   0.800000E+01   0.000000E+00   0.100000E+02   0.000000E+00   0.000000E+00  -0.199095E+02
   0.800000E+01   0.000000E+00   0.120000E+02   0.000000E+00   0.000000E+00  -0.198247E+02
   0.800000E+01   0.000000E+00   0.140000E+02   0.000000E+00   0.000000E+00  -0.197230E+02
   0.800000E+01   0.000000E+00   0.160000E+02   0.000000E+00   0.000000E+00  -0.196039E+02
   0.800000E+01   0.000000E+00   0.180000E+02   0.000000E+00   0.000000E+00  -0.194662E+02
   0.800000E+01   0.000000E+00   0.200000E+02   0.000000E+00   0.000000E+00  -0.193090E+02
   0.800000E+01   0.000000E+00   0.220000E+02   0.000000E+00   0.000000E+00  -0.191310E+02
   0.800000E+01   0.000000E+00   0.240000E+02   0.000000E+00   0.000000E+00  -0.189305E+02
   0.800000E+01   0.000000E+00   0.260000E+02   0.000000E+00   0.000000E+00  -0.187059E+02
   0.800000E+01   0.000000E+00   0.280000E+02   0.000000E+00   0.000000E+00  -0.184550E+02
   0.800000E+01   0.000000E+00   0.300000E+02   0.000000E+00   0.000000E+00  -0.181755E+02
   0.800000E+01   0.000000E+00   0.320000E+02   0.000000E+00   0.000000E+00  -0.178648E+02
   0.800000E+01   0.000000E+00   0.340000E+02   0.000000E+00   0.000000E+00  -0.175202E+02
   0.800000E+01   0.000000E+00   0.360000E+02   0.000000E+00   0.000000E+00  -0.171391E+02
   0.800000E+01   0.000000E+00   0.380000E+02   0.000000E+00   0.000000E+00  -0.167202E+02
   0.800000E+01   0.000000E+00   0.400000E+02   0.000000E+00   0.000000E+00  -0.162655E+02
   0.800000E+01   0.000000E+00   0.420000E+02   0.000000E+00   0.000000E+00  -0.157841E+02
   0.800000E+01   0.000000E+00   0.440000E+02   0.000000E+00   0.000000E+00  -0.153025E+02
   0.800000E+01   0.000000E+00   0.460000E+02   0.000000E+00   0.000000E+00  -0.148722E+02
   0.800000E+01   0.000000E+00   0.480000E+02   0.000000E+00   0.000000E+00  -0.145671E+02
   0.800000E+01   0.000000E+00   0.500000E+02   0.000000E+00   0.000000E+00  -0.144556E+02
   0.800000E+01   0.100000E+01   0.000000E+00   0.000000E+00   0.000000E+00  -0.200988E+02
   0.800000E+01   0.100000E+01   0.200000E+01   0.000000E+00   0.000000E+00  -0.200913E+02
   0.800000E+01   0.100000E+01   0.400000E+01   0.000000E+00   0.000000E+00  -0.200687E+02
   0.800000E+01   0.100000E+01   0.600000E+01   0.000000E+00   0.000000E+00  -0.200311E+02
   0.800000E+01   0.100000E+01   0.800000E+01   0.000000E+00   0.000000E+00  -0.199781E+02
   0.800000E+01   0.100000E+01   0.100000E+02   0.000000E+00   0.000000E+00  -0.199095E+02
   0.800000E+01   0.100000E+01   0.120000E+02   0.000000E+00   0.000000E+00  -0.198247E+02
   0.800000E+01   0.100000E+01   0.140000E+02   0.000000E+00   0.000000E+00  -0.197230E+02
   0.800000E+01   0.100000E+01   0.160000E+02   0.000000E+00   0.000000E+00  -0.196039E+02
   0.800000E+01   0.100000E+01   0.180000E+02   0.000000E+00   0.000000E+00  -0.194662E+02
   0.800000E+01   0.100000E+01   0.200000E+02   0.000000E+00   0.000000E+00  -0.193090E+02
   0.800000E+01   0.100000E+01   0.220000E+02   0.000000E+00   0.000000E+00  -0.191310E+02
   0.800000E+01   0.100000E+01   0.240000E+02   0.000000E+00   0.000000E+00  -0.189305E+02
   0.800000E+01   0.100000E+01   0.260000E+02   0.000000E+00   0.000000E+00  -0.187059E+02
   0.800000E+01   0.100000E+01   0.280000E+02   0.000000E+00   0.000000E+00  -0.184550E+02
   0.800000E+01   0.100000E+01   0.300000E+02   0.000000E+00   0.000000E+00  -0.181755E+02
   0.800000E+01   0.100000E+01   0.320000E+02   0.000000E+00   0.000000E+00  -0.178648E+02
   0.800000E+01   0.100000E+01   0.340000E+02   0.000000E+00   0.000000E+00  -0.175202E+02
   0.800000E+01   0.100000E+01   0.360000E+02   0.000000E+00   0.000000E+00  -0.171391E+02
   0.800000E+01   0.100000E+01   0.380000E+02   0.000000E+00   0.000000E+00  -0.167202E+02
   0.800000E+01   0.100000E+01   0.400000E+02   0.000000E+00   0.000000E+00  -0.162655E+02
   0.800000E+01   0.100000E+01   0.420000E+02   0.000000E+00   0.000000E+00  -0.157841E+02
   0.800000E+01   0.100000E+01   0.440000E+02   0.000000E+00   0.000000E+00  -0.153025E+02
   0.800000E+01   0.100000E+01   0.460000E+02   0.000000E+00   0.000000E+00  -0.148722E+02
   0.800000E+01   0.100000E+01   0.480000E+02   0.000000E+00   0.000000E+00  -0.145671E+02
   0.800000E+01   0.100000E+01   0.500000E+02   0.000000E+00   0.000000E+00  -0.144556E+02
   0.100000E+02   0.000000E+00   0.000000E+00   0.000000E+00   0.000000E+00  -0.201681E+02
   0.100000E+02   0.000000E+00   0.200000E+01   0.000000E+00   0.000000E+00  -0.201609E+02
   0.100000E+02   0.000000E+00   0.400000E+01   0.000000E+00   0.000000E+00  -0.201392E+02
   0.100000E+02   0.000000E+00   0.600000E+01   0.000000E+00   0.000000E+00  -0.201029E+02
   0.100000E+02   0.000000E+00   0.800000E+01   0.000000E+00   0.000000E+00  -0.200519E+02
   0.100000E+02   0.000000E+00   0.100000E+02   0.000000E+00   0.000000E+00  -0.199858E+02
   0.100000E+02   0.000000E+00   0.120000E+02   0.000000E+00   0.000000E+00  -0.199042E+02
   0.100000E+02   0.000000E+00   0.140000E+02   0.000000E+00   0.000000E+00  -0.198067E+02
   0.100000E+02   0.000000E+00   0.160000E+02   0.000000E+00   0.000000E+00  -0.196926E+02
   0.100000E+02   0.000000E+00   0.180000E+02   0.000000E+00   0.000000E+00  -0.195611E+02
   0.100000E+02   0.000000E+00   0.200000E+02   0.000000E+00   0.000000E+00  -0.194115E+02
   0.100000E+02   0.000000E+00   0.220000E+02   0.000000E+00   0.000000E+00  -0.192427E+02
   0.100000E+02   0.000000E+00   0.240000E+02   0.000000E+00   0.000000E+00  -0.190536E+02
   0.100000E+02   0.000000E+00   0.260000E+02   0.000000E+00   0.000000E+00  -0.188429E+02
   0.100000E+02   0.000000E+00   0.280000E+02   0.000000E+00   0.000000E+00  -0.186095E+02
   0.100000E+02   0.000000E+00   0.300000E+02   0.000000E+00   0.000000E+00  -0.183520E+02
   0.100000E+02   0.000000E+00   0.320000E+02   0.000000E+00   0.000000E+00  -0.180691E+02
   0.100000E+02   0.000000E+00   0.340000E+02   0.000000E+00   0.000000E+00  -0.177603E+02
   0.100000E+02   0.000000E+00   0.360000E+02   0.000000E+00   0.000000E+00  -0.174257E+02
   0.100000E+02   0.000000E+00   0.380000E+02   0.000000E+00   0.000000E+00  -0.170678E+02
   0.100000E+02   0.000000E+00   0.400000E+02   0.000000E+00   0.000000E+00  -0.166929E+02
   0.100000E+02   0.000000E+00   0.420000E+02   0.000000E+00   0.000000E+00  -0.163144E+02
   0.100000E+02   0.000000E+00   0.440000E+02   0.000000E+00   0.000000E+00  -0.159564E+02
   0.100000E+02   0.000000E+00   0.460000E+02   0.000000E+00   0.000000E+00  -0.156542E+02
   0.100000E+02   0.000000E+00   0.480000E+02   0.000000E+00   0.000000E+00  -0.154494E+02
   0.100000E+02   0.000000E+00   0.500000E+02   0.000000E+00   0.000000E+00  -0.153766E+02
   0.100000E+02   0.100000E+01   0.000000E+00   0.000000E+00   0.000000E+00  -0.201681E+02
   0.100000E+02   0.100000E+01   0.200000E+01   0.000000E+00   0.000000E+00  -0.201609E+02
   0.100000E+02   0.100000E+01   0.400000E+01   0.000000E+00   0.000000E+00  -0.201392E+02
   0.100000E+02   0.100000E+01   0.600000E+01   0.000000E+00   0.000000E+00  -0.201029E+02
   0.100000E+02   0.100000E+01   0.800000E+01   0.000000E+00   0.000000E+00  -0.200519E+02
   0.100000E+02   0.100000E+01   0.100000E+02   0.000000E+00   0.000000E+00  -0.199858E+02
   0.100000E+02   0.100000E+01   0.120000E+02   0.000000E+00   0.000000E+00  -0.199042E+02
   0.100000E+02   0.100000E+01   0.140000E+02   0.000000E+00   0.000000E+00  -0.198067E+02
   0.100000E+02   0.100000E+01   0.160000E+02   0.000000E+00   0.000000E+00  -0.196926E+02
   0.100000E+02   0.100000E+01   0.180000E+02   0.000000E+00   0.000000E+00  -0.195611E+02
   0.100000E+02   0.100000E+01   0.200000E+02   0.000000E+00   0.000000E+00  -0.194115E+02
   0.100000E+02   0.100000E+01   0.220000E+02   0.000000E+00   0.000000E+00  -0.192427E+02
   0.100000E+02   0.100000E+01   0.240000E+02   0.000000E+00   0.000000E+00  -0.190536E+02
   0.100000E+02   0.100000E+01   0.260000E+02   0.000000E+00   0.000000E+00  -0.188429E+02
   0.100000E+02   0.100000E+01   0.280000E+02   0.000000E+00   0.000000E+00  -0.186095E+02
   0.100000E+02   0.100000E+01   0.300000E+02   0.000000E+00   0.000000E+00  -0.183520E+02
   0.100000E+02   0.100000E+01   0.320000E+02   0.000000E+00   0.000000E+00  -0.180691E+02
   0.100000E+02   0.100000E+01   0.340000E+02   0.000000E+00   0.000000E+00  -0.177603E+02
   0.100000E+02   0.100000E+01   0.360000E+02   0.000000E+00   0.000000E+00  -0.174257E+02
   0.100000E+02   0.100000E+01   0.380000E+02   0.000000E+00   0.000000E+00  -0.170678E+02
   0.100000E+02   0.100000E+01   0.400000E+02   0.000000E+00   0.000000E+00  -0.166929E+02
   0.100000E+02   0.100000E+01   0.420000E+02   0.000000E+00   0.000000E+00  -0.163144E+02
   0.100000E+02   0.100000E+01   0.440000E+02   0.000000E+00   0.000000E+00  -0.159564E+02
   0.100000E+02   0.100000E+01   0.460000E+02   0.000000E+00   0.000000E+00  -0.156542E+02
   0.100000E+02   0.100000E+01   0.480000E+02   0.000000E+00   0.000000E+00  -0.154494E+02
   0.100000E+02   0.100000E+01   0.500000E+02   0.000000E+00   0.000000E+00  -0.153766E+02
   0.120000E+02   0.000000E+00   0.000000E+00   0.000000E+00   0.000000E+00  -0.202518E+02
   0.120000E+02   0.000000E+00   0.200000E+01   0.000000E+00   0.000000E+00  -0.202449E+02
   0.120000E+02   0.000000E+00   0.400000E+01   0.000000E+00   0.000000E+00  -0.202242E+02
   0.120000E+02   0.000000E+00   0.600000E+01   0.000000E+00   0.000000E+00  -0.201895E+02
   0.120000E+02   0.000000E+00   0.800000E+01   0.000000E+00   0.000000E+00  -0.201407E+02
   0.120000E+02   0.000000E+00   0.100000E+02   0.000000E+00   0.000000E+00  -0.200776E+02
   0.120000E+02   0.000000E+00   0.120000E+02   0.000000E+00   0.000000E+00  -0.199998E+02
   0.120000E+02   0.000000E+00   0.140000E+02   0.000000E+00   0.000000E+00  -0.199069E+02
   0.120000E+02   0.000000E+00   0.160000E+02   0.000000E+00   0.000000E+00  -0.197986E+02
   0.120000E+02   0.000000E+00   0.180000E+02   0.000000E+00   0.000000E+00  -0.196741E+02
   0.120000E+02   0.000000E+00   0.200000E+02   0.000000E+00   0.000000E+00  -0.195330E+02
   0.120000E+02   0.000000E+00   0.220000E+02   0.000000E+00   0.000000E+00  -0.193746E+02
   0.120000E+02   0.000000E+00   0.240000E+02   0.000000E+00   0.000000E+00  -0.191980E+02
   0.120000E+02   0.000000E+00   0.260000E+02   0.000000E+00   0.000000E+00  -0.190028E+02
   0.120000E+02   0.000000E+00   0.280000E+02   0.000000E+00   0.000000E+00  -0.187882E+02