Title="T-dependent functions; (at por(1) = 0.200)"
variables="Temp","pw(kg/m3)","rden(T,C=0)","rden(T,C=1)",      "rvisc_w(T)","Wu(T)","dWu(T)","tk(T)","Co(T)"
zone i=   1000
  -5.0000000000000000        1000.0000000000000        0.0000000000000000       0.20000000000000001        1.0000000000000000       0.10000027531208845        8.2593626535492973E-007   1.9878734380248191        2116024.9237604924     
  -4.8949999999999996        1000.0000000000000        0.0000000000000000       0.20000000000000001        1.0000000000000000       0.10000037724895262        1.1317468578596427E-006   1.9878733977078997        2116024.9695839672     
  -4.7899999999999991        1000.0000000000000        0.0000000000000000       0.20000000000000001        1.0000000000000000       0.10000051692888988        1.5507866696285017E-006   1.9878733424632662        2116025.0323740100     
  -4.6849999999999987        1000.0000000000000        0.0000000000000000       0.20000000000000001        1.0000000000000000       0.10000070832662446        2.1249798733664490E-006   1.9878732667637937        2116025.1184126511     
  -4.5799999999999983        1000.0000000000000        0.0000000000000000       0.20000000000000001        1.0000000000000000       0.10000097059115236        2.9117734570766001E-006   1.9878731630358899        2116025.2363078999     
  -4.4749999999999979        1000.0000000000000        0.0000000000000000       0.20000000000000001        1.0000000000000000       0.10000132996156366        3.9898846909566592E-006   1.9878730209017672        2116025.3978549619     
  -4.3699999999999974        1000.0000000000000        0.0000000000000000       0.20000000000000001        1.0000000000000000       0.10000182239221582        5.4671766474281485E-006   1.9878728261411709        2116025.6192163280     
  -4.2649999999999970        1000.0000000000000        0.0000000000000000       0.20000000000000001        1.0000000000000000       0.10000249714990193        7.4914497057850862E-006   1.9878725592686659        2116025.9225388011     
  -4.1599999999999966        1000.0000000000000        0.0000000000000000       0.20000000000000001        1.0000000000000000       0.10000342174290398        1.0265228711918081E-005   1.9878721935841595        2116026.3381692441     
  -4.0549999999999962        1000.0000000000000        0.0000000000000000       0.20000000000000001        1.0000000000000000       0.10000468867507388        1.4066025221608865E-005   1.9878716925016156        2116026.9076907285     
  -3.9499999999999962        1000.0000000000000        0.0000000000000000       0.20000000000000001        1.0000000000000000       0.10000642470067603        1.9274102028065489E-005   1.9878710058886959        2116027.6880828454     
  -3.8449999999999962        1000.0000000000000        0.0000000000000000       0.20000000000000001        1.0000000000000000       0.10000880350592144        2.6410517764291859E-005   1.9878700650511423        2116028.7574224100     
  -3.7399999999999962        1000.0000000000000        0.0000000000000000       0.20000000000000001        1.0000000000000000       0.10001206308595791        3.6189257873716123E-005   1.9878687758600859        2116030.2226949045     
  -3.6349999999999962        1000.0000000000000        0.0000000000000000       0.20000000000000001        1.0000000000000000       0.10001652955585270        4.9588667558083295E-005   1.9878670093347168        2116032.2304981835     
  -3.5299999999999963        1000.0000000000000        0.0000000000000000       0.20000000000000001        1.0000000000000000       0.10002264977781314        6.7949333439414747E-005   1.9878645887381561        2116034.9817093210     
  -3.4249999999999963        1000.0000000000000        0.0000000000000000       0.20000000000000001        1.0000000000000000       0.10003103606893957        9.3108206818679794E-005   1.9878612718955735        2116038.7515819985     
  -3.3199999999999963        1000.0000000000000        0.0000000000000000       0.20000000000000001        1.0000000000000000       0.10004252746243994        1.2758238731980562E-004   1.9878567269656364        2116043.9172851359     
  -3.2149999999999963        1000.0000000000000        0.0000000000000000       0.20000000000000001        1.0000000000000000       0.10005827365137970        1.7482095413908543E-004   1.9878504992415087        2116050.9956379575     
  -3.1099999999999963        1000.0000000000000        0.0000000000000000       0.20000000000000001        1.0000000000000000       0.10007985001338650        2.3955004015946779E-004   1.9878419656603799        2116060.6948168175     
  -3.0049999999999963        1000.0000000000000        0.0000000000000000       0.20000000000000001        1.0000000000000000       0.10010941522432289        3.2824567296863309E-004   1.9878302724711265        2116073.9852069598     
  -2.8999999999999964        1000.0000000000000        0.0000000000000000       0.20000000000000001        1.0000000000000000       0.10014992722988887        4.4978168966661533E-004   1.9878142498255278        2116092.1964877974     
  -2.7949999999999964        1000.0000000000000        0.0000000000000000       0.20000000000000001        1.0000000000000000       0.10020543918272122        6.1631754816364969E-004   1.9877922947510751        2116117.1506649302     
  -2.6899999999999964        1000.0000000000000        0.0000000000000000       0.20000000000000001        1.0000000000000000       0.10028150495295915        8.4451485887742793E-004   1.9877622108027784        2116151.3443584940     
  -2.5849999999999964        1000.0000000000000        0.0000000000000000       0.20000000000000001        1.0000000000000000       0.10038573478287278        1.1572043486183300E-003   1.9877209883622071        2116198.1985854753     
  -2.4799999999999964        1000.0000000000000        0.0000000000000000       0.20000000000000001        1.0000000000000000       0.10052855667779140        1.5856700333741936E-003   1.9876645036233327        2116262.4010262545     
  -2.3749999999999964        1000.0000000000000        0.0000000000000000       0.20000000000000001        1.0000000000000000       0.10072425970911217        2.1727791273364792E-003   1.9875871061872843        2116350.3750185180     
  -2.2699999999999965        1000.0000000000000        0.0000000000000000       0.20000000000000001        1.0000000000000000       0.10099242360996195        2.9772708298858269E-003   1.9874810540770256        2116470.9222005391     
  -2.1649999999999965        1000.0000000000000        0.0000000000000000       0.20000000000000001        1.0000000000000000       0.10135987769196392        4.0796330758917200E-003   1.9873357397802549        2116636.1030991133     
  -2.0599999999999965        1000.0000000000000        0.0000000000000000       0.20000000000000001        1.0000000000000000       0.10186338506917626        5.5901552075287636E-003   1.9871366301392570        2116862.4437633767     
  -1.9549999999999965        1000.0000000000000        0.0000000000000000       0.20000000000000001        1.0000000000000000       0.10255332074093701        7.6599622228110250E-003   1.9868638144982385        2117172.5891660322     
  -1.8499999999999965        1000.0000000000000        0.0000000000000000       0.20000000000000001        1.0000000000000000       0.10349871151912855        1.0496134557385656E-002   1.9864900167403572        2117597.5687917708     
  -1.7449999999999966        1000.0000000000000        0.0000000000000000       0.20000000000000001        1.0000000000000000       0.10479414203543841        1.4382426106315195E-002   1.9859778739886040        2118179.9010809069     
  -1.6399999999999966        1000.0000000000000        0.0000000000000000       0.20000000000000001        1.0000000000000000       0.10656921776210980        1.9707653286329386E-002   1.9852762128380528        2118977.8473221660     
  -1.5349999999999966        1000.0000000000000        0.0000000000000000       0.20000000000000001        1.0000000000000000       0.10900153180423504        2.7004595412705081E-002   1.9843149564374978        2120071.2405888941     
  -1.4299999999999966        1000.0000000000000        0.0000000000000000       0.20000000000000001        1.0000000000000000       0.11233443276762857        3.7003298302885713E-002   1.9829981639127259        2121569.4728931668     
  -1.3249999999999966        1000.0000000000000        0.0000000000000000       0.20000000000000001        1.0000000000000000       0.11690137134521614        5.0704114035648409E-002   1.9811945264474520        2123622.4396580723     
  -1.2199999999999966        1000.0000000000000        0.0000000000000000       0.20000000000000001        1.0000000000000000       0.12315926145372419        6.9477784361172551E-002   1.9787244080556721        2126435.5364827700     
  -1.1149999999999967        1000.0000000000000        0.0000000000000000       0.20000000000000001        1.0000000000000000       0.13173419364185304        9.5202580925559110E-002   1.9753422075065084        2130290.2085994352     
  -1.0099999999999967        1000.0000000000000        0.0000000000000000       0.20000000000000001        1.0000000000000000       0.14348407431346144       0.13045222294038430        1.9707124138252565        2135572.1089579817     
 -0.90499999999999670        1000.0000000000000        0.0000000000000000       0.20000000000000001        1.0000000000000000       0.15958445770636651       0.17875337311909950        1.9643772171519407        2142809.6821038276     
 -0.79999999999999671        1000.0000000000000        0.0000000000000000       0.20000000000000001        1.0000000000000000       0.18164615796047207       0.24493847388141621        1.9557129177512755        2152727.0340956552     
 -0.69499999999999673        1000.0000000000000        0.0000000000000000       0.20000000000000001        1.0000000000000000       0.21187640814920256       0.33562922444760768        1.9438716793650879        2166316.3780024946     
 -0.58999999999999675        1000.0000000000000        0.0000000000000000       0.20000000000000001        1.0000000000000000       0.25329968994287000       0.45989906982860995        1.9277045031617805        2184937.3030206384     
 -0.48499999999999677        1000.0000000000000        0.0000000000000000       0.20000000000000001        1.0000000000000000       0.31006032751103824       0.63018098253311472        1.9056609149001951        2210452.7989053819     
 -0.37999999999999678        1000.0000000000000        0.0000000000000000       0.20000000000000001        1.0000000000000000       0.38783711963467632       0.86351135890402897        1.8756613355428167        2245415.6447151368     
 -0.27499999999999680        1000.0000000000000        0.0000000000000000       0.20000000000000001        1.0000000000000000       0.49441149321845812        1.1832344796553744        1.8349406438201836        2293323.8097235071     
 -0.16999999999999682        1000.0000000000000        0.0000000000000000       0.20000000000000001        1.0000000000000000       0.64044602093104452        1.6213380627931335        1.7798684543879433        2358970.4188970909     
  -6.4999999999996824E-002   1000.0000000000000        0.0000000000000000       0.20000000000000001        1.0000000000000000       0.84055119225042363        2.2216535767512706        1.7057678889917636        2448923.2963499487     
   4.0000000000003172E-002   1000.0000000000000        0.0000000000000000       0.20000000000000001        1.0000000000000000        1.0000000000000000        0.0000000000000000        1.6478505476566090        2520600.0000000000     
  0.14500000000000318        1000.0000000000000        0.0000000000000000       0.20000000000000001        1.0000000000000000        1.0000000000000000        0.0000000000000000        1.6478505476566090        2520600.0000000000     
  0.25000000000000316        1000.0000000000000        0.0000000000000000       0.20000000000000001        1.0000000000000000        1.0000000000000000        0.0000000000000000        1.6478505476566090        2520600.0000000000     
  0.35500000000000315        1000.0000000000000        0.0000000000000000       0.20000000000000001        1.0000000000000000        1.0000000000000000        0.0000000000000000        1.6478505476566090        2520600.0000000000     
  0.46000000000000313        1000.0000000000000        0.0000000000000000       0.20000000000000001        1.0000000000000000        1.0000000000000000        0.0000000000000000        1.6478505476566090        2520600.0000000000     
  0.56500000000000317        1000.0000000000000        0.0000000000000000       0.20000000000000001        1.0000000000000000        1.0000000000000000        0.0000000000000000        1.6478505476566090        2520600.0000000000     
  0.67000000000000315        1000.0000000000000        0.0000000000000000       0.20000000000000001        1.0000000000000000        1.0000000000000000        0.0000000000000000        1.6478505476566090        2520600.0000000000     
  0.77500000000000313        1000.0000000000000        0.0000000000000000       0.20000000000000001        1.0000000000000000        1.0000000000000000        0.0000000000000000        1.6478505476566090        2520600.0000000000     
  0.88000000000000311        1000.0000000000000        0.0000000000000000       0.20000000000000001        1.0000000000000000        1.0000000000000000        0.0000000000000000        1.6478505476566090        2520600.0000000000     
  0.98500000000000310        1000.0000000000000        0.0000000000000000       0.20000000000000001        1.0000000000000000        1.0000000000000000        0.0000000000000000        1.6478505476566090        2520600.0000000000     
   1.0900000000000032        1000.0000000000000        0.0000000000000000       0.20000000000000001        1.0000000000000000        1.0000000000000000        0.0000000000000000        1.6478505476566090        2520600.0000000000     
   1.1950000000000032        1000.0000000000000        0.0000000000000000       0.20000000000000001        1.0000000000000000        1.0000000000000000        0.0000000000000000        1.6478505476566090        2520600.0000000000     
   1.3000000000000032        1000.0000000000000        0.0000000000000000       0.20000000000000001        1.0000000000000000        1.0000000000000000        0.0000000000000000        1.6478505476566090        2520600.0000000000     
   1.4050000000000031        1000.0000000000000        0.0000000000000000       0.20000000000000001        1.0000000000000000        1.0000000000000000        0.0000000000000000        1.6478505476566090        2520600.0000000000     
   1.5100000000000031        1000.0000000000000        0.0000000000000000       0.20000000000000001        1.0000000000000000        1.0000000000000000        0.0000000000000000        1.6478505476566090        2520600.0000000000     
   1.6150000000000031        1000.0000000000000        0.0000000000000000       0.20000000000000001        1.0000000000000000        1.0000000000000000        0.0000000000000000        1.6478505476566090        2520600.0000000000     
   1.7200000000000031        1000.0000000000000        0.0000000000000000       0.20000000000000001        1.0000000000000000        1.0000000000000000        0.0000000000000000        1.6478505476566090        2520600.0000000000     
   1.8250000000000031        1000.0000000000000        0.0000000000000000       0.20000000000000001        1.0000000000000000        1.0000000000000000        0.0000000000000000        1.6478505476566090        2520600.0000000000     
   1.9300000000000030        1000.0000000000000        0.0000000000000000       0.20000000000000001        1.0000000000000000        1.0000000000000000        0.0000000000000000        1.6478505476566090        2520600.0000000000     
   2.0350000000000033        1000.0000000000000        0.0000000000000000       0.20000000000000001        1.0000000000000000        1.0000000000000000        0.0000000000000000        1.6478505476566090        2520600.0000000000     
   2.1400000000000032        1000.0000000000000        0.0000000000000000       0.20000000000000001        1.0000000000000000        1.0000000000000000        0.0000000000000000        1.6478505476566090        2520600.0000000000     
   2.2450000000000032        1000.0000000000000        0.0000000000000000       0.20000000000000001        1.0000000000000000        1.0000000000000000        0.0000000000000000        1.6478505476566090        2520600.0000000000     
   2.3500000000000032        1000.0000000000000        0.0000000000000000       0.20000000000000001        1.0000000000000000        1.0000000000000000        0.0000000000000000        1.6478505476566090        2520600.0000000000     
   2.4550000000000032        1000.0000000000000        0.0000000000000000       0.20000000000000001        1.0000000000000000        1.0000000000000000        0.0000000000000000        1.6478505476566090        2520600.0000000000     
   2.5600000000000032        1000.0000000000000        0.0000000000000000       0.20000000000000001        1.0000000000000000        1.0000000000000000        0.0000000000000000        1.6478505476566090        2520600.0000000000     
   2.6650000000000031        1000.0000000000000        0.0000000000000000       0.20000000000000001        1.0000000000000000        1.0000000000000000        0.0000000000000000        1.6478505476566090        2520600.0000000000     
   2.7700000000000031        1000.0000000000000        0.0000000000000000       0.20000000000000001        1.0000000000000000        1.0000000000000000        0.0000000000000000        1.6478505476566090        2520600.0000000000     
   2.8750000000000031        1000.0000000000000        0.0000000000000000       0.20000000000000001        1.0000000000000000        1.0000000000000000        0.0000000000000000        1.6478505476566090        2520600.0000000000     
   2.9800000000000031        1000.0000000000000        0.0000000000000000       0.20000000000000001        1.0000000000000000        1.0000000000000000        0.0000000000000000        1.6478505476566090        2520600.0000000000     
   3.0850000000000031        1000.0000000000000        0.0000000000000000       0.20000000000000001        1.0000000000000000        1.0000000000000000        0.0000000000000000        1.6478505476566090        2520600.0000000000     
   3.1900000000000031        1000.0000000000000        0.0000000000000000       0.20000000000000001        1.0000000000000000        1.0000000000000000        0.0000000000000000        1.6478505476566090        2520600.0000000000     
   3.2950000000000030        1000.0000000000000        0.0000000000000000       0.20000000000000001        1.0000000000000000        1.0000000000000000        0.0000000000000000        1.6478505476566090        2520600.0000000000     
   3.4000000000000030        1000.0000000000000        0.0000000000000000       0.20000000000000001        1.0000000000000000        1.0000000000000000        0.0000000000000000        1.6478505476566090        2520600.0000000000     
   3.5050000000000030        1000.0000000000000        0.0000000000000000       0.20000000000000001        1.0000000000000000        1.0000000000000000        0.0000000000000000        1.6478505476566090        2520600.0000000000     
   3.6100000000000030        1000.0000000000000        0.0000000000000000       0.20000000000000001        1.0000000000000000        1.0000000000000000        0.0000000000000000        1.6478505476566090        2520600.0000000000     
   3.7150000000000030        1000.0000000000000        0.0000000000000000       0.20000000000000001        1.0000000000000000        1.0000000000000000        0.0000000000000000        1.6478505476566090        2520600.0000000000     
   3.8200000000000029        1000.0000000000000        0.0000000000000000       0.20000000000000001        1.0000000000000000        1.0000000000000000        0.0000000000000000        1.6478505476566090        2520600.0000000000     
   3.9250000000000029        1000.0000000000000        0.0000000000000000       0.20000000000000001        1.0000000000000000        1.0000000000000000        0.0000000000000000        1.6478505476566090        2520600.0000000000     
   4.0300000000000029        1000.0000000000000        0.0000000000000000       0.20000000000000001        1.0000000000000000        1.0000000000000000        0.0000000000000000        1.6478505476566090        2520600.0000000000     
   4.1350000000000033        1000.0000000000000        0.0000000000000000       0.20000000000000001        1.0000000000000000        1.0000000000000000        0.0000000000000000        1.6478505476566090        2520600.0000000000     
   4.2400000000000038        1000.0000000000000        0.0000000000000000       0.20000000000000001        1.0000000000000000        1.0000000000000000        0.0000000000000000        1.6478505476566090        2520600.0000000000     
   4.3450000000000042        1000.0000000000000        0.0000000000000000       0.20000000000000001        1.0000000000000000        1.0000000000000000        0.0000000000000000        1.6478505476566090        2520600.0000000000     
   4.4500000000000046        1000.0000000000000        0.0000000000000000       0.20000000000000001        1.0000000000000000        1.0000000000000000        0.0000000000000000        1.6478505476566090        2520600.0000000000     
   4.5550000000000050        1000.0000000000000        0.0000000000000000       0.20000000000000001        1.0000000000000000        1.0000000000000000        0.0000000000000000        1.6478505476566090        2520600.0000000000     
   4.6600000000000055        1000.0000000000000        0.0000000000000000       0.20000000000000001        1.0000000000000000        1.0000000000000000        0.0000000000000000        1.6478505476566090        2520600.0000000000     
   4.7650000000000059        1000.0000000000000        0.0000000000000000       0.20000000000000001        1.0000000000000000        1.0000000000000000        0.0000000000000000        1.6478505476566090        2520600.0000000000     
   4.8700000000000063        1000.0000000000000        0.0000000000000000       0.20000000000000001        1.0000000000000000        1.0000000000000000        0.0000000000000000        1.6478505476566090        2520600.0000000000     
   4.9750000000000068        1000.0000000000000        0.0000000000000000       0.20000000000000001        1.0000000000000000        1.0000000000000000        0.0000000000000000        1.6478505476566090        2520600.0000000000     
   5.0800000000000072        1000.0000000000000        0.0000000000000000       0.20000000000000001        1.0000000000000000        1.0000000000000000        0.0000000000000000        1.6478505476566090        2520600.0000000000     
   5.1850000000000076        1000.0000000000000        0.0000000000000000       0.20000000000000001        1.0000000000000000        1.0000000000000000        0.0000000000000000        1.6478505476566090        2520600.0000000000     
   5.2900000000000080        1000.0000000000000        0.0000000000000000       0.20000000000000001        1.0000000000000000        1.0000000000000000        0.0000000000000000        1.6478505476566090        2520600.0000000000     
   5.3950000000000085        1000.0000000000000        0.0000000000000000       0.20000000000000001        1.0000000000000000        1.0000000000000000        0.0000000000000000        1.6478505476566090        2520600.0000000000     
   5.5000000000000089        1000.0000000000000        0.0000000000000000       0.20000000000000001        1.0000000000000000        1.0000000000000000        0.0000000000000000        1.6478505476566090        2520600.0000000000     
   5.6050000000000093        1000.0000000000000        0.0000000000000000       0.20000000000000001        1.0000000000000000        1.0000000000000000        0.0000000000000000        1.6478505476566090        2520600.0000000000     
   5.7100000000000097        1000.0000000000000        0.0000000000000000       0.20000000000000001        1.0000000000000000        1.0000000000000000        0.0000000000000000        1.6478505476566090        2520600.0000000000     
   5.8150000000000102        1000.0000000000000        0.0000000000000000       0.20000000000000001        1.0000000000000000        1.0000000000000000        0.0000000000000000        1.6478505476566090        2520600.0000000000     
   5.9200000000000106        1000.0000000000000        0.0000000000000000       0.20000000000000001        1.0000000000000000        1.0000000000000000        0.0000000000000000        1.6478505476566090        2520600.0000000000     
   6.0250000000000110        1000.0000000000000        0.0000000000000000       0.20000000000000001        1.0000000000000000        1.0000000000000000        0.0000000000000000        1.6478505476566090        2520600.0000000000     
   6.1300000000000114        1000.0000000000000        0.0000000000000000       0.20000000000000001        1.0000000000000000        1.0000000000000000        0.0000000000000000        1.6478505476566090        2520600.0000000000     
   6.2350000000000119        1000.0000000000000        0.0000000000000000       0.20000000000000001        1.0000000000000000        1.0000000000000000        0.0000000000000000        1.6478505476566090        2520600.0000000000     
   6.3400000000000123        1000.0000000000000        0.0000000000000000       0.20000000000000001        1.0000000000000000        1.0000000000000000        0.0000000000000000        1.6478505476566090        2520600.0000000000     
   6.4450000000000127        1000.0000000000000        0.0000000000000000       0.20000000000000001        1.0000000000000000        1.0000000000000000        0.0000000000000000        1.6478505476566090        2520600.0000000000     
   6.5500000000000131        1000.0000000000000        0.0000000000000000       0.20000000000000001        1.0000000000000000        1.0000000000000000        0.0000000000000000        1.6478505476566090        2520600.0000000000     
   6.6550000000000136        1000.0000000000000        0.0000000000000000       0.20000000000000001        1.0000000000000000        1.0000000000000000        0.0000000000000000        1.6478505476566090        2520600.0000000000     
   6.7600000000000140        1000.0000000000000        0.0000000000000000       0.20000000000000001        1.0000000000000000        1.0000000000000000        0.0000000000000000        1.6478505476566090        2520600.0000000000     
   6.8650000000000144        1000.0000000000000        0.0000000000000000       0.20000000000000001        1.0000000000000000        1.0000000000000000        0.0000000000000000        1.6478505476566090        2520600.0000000000     
   6.9700000000000149        1000.0000000000000        0.0000000000000000       0.20000000000000001        1.0000000000000000        1.0000000000000000        0.0000000000000000        1.6478505476566090        2520600.0000000000     
   7.0750000000000153        1000.0000000000000        0.0000000000000000       0.20000000000000001        1.0000000000000000        1.0000000000000000        0.0000000000000000        1.6478505476566090        2520600.0000000000     
   7.1800000000000157        1000.0000000000000        0.0000000000000000       0.20000000000000001        1.0000000000000000        1.0000000000000000        0.0000000000000000        1.6478505476566090        2520600.0000000000     
   7.2850000000000161        1000.0000000000000        0.0000000000000000       0.20000000000000001        1.0000000000000000        1.0000000000000000        0.0000000000000000        1.6478505476566090        2520600.0000000000     
   7.3900000000000166        1000.0000000000000        0.0000000000000000       0.20000000000000001        1.0000000000000000        1.0000000000000000        0.0000000000000000        1.6478505476566090        2520600.0000000000     
   7.4950000000000170        1000.0000000000000        0.0000000000000000       0.20000000000000001        1.0000000000000000        1.0000000000000000        0.0000000000000000        1.6478505476566090        2520600.0000000000     
   7.6000000000000174        1000.0000000000000        0.0000000000000000       0.20000000000000001        1.0000000000000000        1.0000000000000000        0.0000000000000000        1.6478505476566090        2520600.0000000000     
   7.7050000000000178        1000.0000000000000        0.0000000000000000       0.20000000000000001        1.0000000000000000        1.0000000000000000        0.0000000000000000        1.6478505476566090        2520600.0000000000     
   7.8100000000000183        1000.0000000000000        0.0000000000000000       0.20000000000000001        1.0000000000000000        1.0000000000000000        0.0000000000000000        1.6478505476566090        2520600.0000000000     
   7.9150000000000187        1000.0000000000000        0.0000000000000000       0.20000000000000001        1.0000000000000000        1.0000000000000000        0.0000000000000000        1.6478505476566090        2520600.0000000000     
   8.0200000000000191        1000.0000000000000        0.0000000000000000       0.20000000000000001        1.0000000000000000        1.0000000000000000        0.0000000000000000        1.6478505476566090        2520600.0000000000     
   8.1250000000000195        1000.0000000000000        0.0000000000000000       0.20000000000000001        1.0000000000000000        1.0000000000000000        0.0000000000000000        1.6478505476566090        2520600.0000000000     