variables="x","z","T-Tbck"
zone i=    26, j=   201,T="         0.000 days;   1"
   0.000000E+00   0.000000E+00   0.000000E+00
   0.000000E+00   0.200000E+01   0.000000E+00
   0.000000E+00   0.400000E+01   0.000000E+00
   0.000000E+00   0.600000E+01   0.000000E+00
   0.000000E+00   0.800000E+01   0.000000E+00
   0.000000E+00   0.100000E+02   0.000000E+00
   0.000000E+00   0.120000E+02   0.000000E+00
   0.000000E+00   0.140000E+02   0.000000E+00
   0.000000E+00   0.160000E+02   0.000000E+00
   0.000000E+00   0.180000E+02   0.000000E+00
   0.000000E+00   0.200000E+02   0.000000E+00
   0.000000E+00   0.220000E+02   0.000000E+00
   0.000000E+00   0.240000E+02   0.000000E+00
   0.000000E+00   0.260000E+02   0.000000E+00
   0.000000E+00   0.280000E+02   0.000000E+00
   0.000000E+00   0.300000E+02   0.000000E+00
   0.000000E+00   0.320000E+02   0.000000E+00
   0.000000E+00   0.340000E+02   0.000000E+00
   0.000000E+00   0.360000E+02   0.000000E+00
   0.000000E+00   0.380000E+02   0.000000E+00
   0.000000E+00   0.400000E+02   0.000000E+00
   0.000000E+00   0.420000E+02   0.000000E+00
   0.000000E+00   0.440000E+02   0.000000E+00
   0.000000E+00   0.460000E+02   0.000000E+00
   0.000000E+00   0.480000E+02   0.000000E+00
   0.000000E+00   0.500000E+02   0.000000E+00
   0.200000E+01   0.000000E+00   0.000000E+00
   0.200000E+01   0.200000E+01   0.000000E+00
   0.200000E+01   0.400000E+01   0.000000E+00
   0.200000E+01   0.600000E+01   0.000000E+00
   0.200000E+01   0.800000E+01   0.000000E+00
   0.200000E+01   0.100000E+02   0.000000E+00
   0.200000E+01   0.120000E+02   0.000000E+00
   0.200000E+01   0.140000E+02   0.000000E+00
   0.200000E+01   0.160000E+02   0.000000E+00
   0.200000E+01   0.180000E+02   0.000000E+00
   0.200000E+01   0.200000E+02   0.000000E+00
   0.200000E+01   0.220000E+02   0.000000E+00
   0.200000E+01   0.240000E+02   0.000000E+00
   0.200000E+01   0.260000E+02   0.000000E+00
   0.200000E+01   0.280000E+02   0.000000E+00
   0.200000E+01   0.300000E+02   0.000000E+00
   0.200000E+01   0.320000E+02   0.000000E+00
   0.200000E+01   0.340000E+02   0.000000E+00
   0.200000E+01   0.360000E+02   0.000000E+00
   0.200000E+01   0.380000E+02   0.000000E+00
   0.200000E+01   0.400000E+02   0.000000E+00
   0.200000E+01   0.420000E+02   0.000000E+00
   0.200000E+01   0.440000E+02   0.000000E+00
   0.200000E+01   0.460000E+02   0.000000E+00
   0.200000E+01   0.480000E+02   0.000000E+00
   0.200000E+01   0.500000E+02   0.000000E+00
   0.400000E+01   0.000000E+00   0.000000E+00
   0.400000E+01   0.200000E+01   0.000000E+00
   0.400000E+01   0.400000E+01   0.000000E+00
   0.400000E+01   0.600000E+01   0.000000E+00
   0.400000E+01   0.800000E+01   0.000000E+00
   0.400000E+01   0.100000E+02   0.000000E+00
   0.400000E+01   0.120000E+02   0.000000E+00
   0.400000E+01   0.140000E+02   0.000000E+00
   0.400000E+01   0.160000E+02   0.000000E+00
   0.400000E+01   0.180000E+02   0.000000E+00
   0.400000E+01   0.200000E+02   0.000000E+00
   0.400000E+01   0.220000E+02   0.000000E+00
   0.400000E+01   0.240000E+02   0.000000E+00
   0.400000E+01   0.260000E+02   0.000000E+00
   0.400000E+01   0.280000E+02   0.000000E+00
   0.400000E+01   0.300000E+02   0.000000E+00
   0.400000E+01   0.320000E+02   0.000000E+00
   0.400000E+01   0.340000E+02   0.000000E+00
   0.400000E+01   0.360000E+02   0.000000E+00
   0.400000E+01   0.380000E+02   0.000000E+00
   0.400000E+01   0.400000E+02   0.000000E+00
   0.400000E+01   0.420000E+02   0.000000E+00
   0.400000E+01   0.440000E+02   0.000000E+00
   0.400000E+01   0.460000E+02   0.000000E+00
   0.400000E+01   0.480000E+02   0.000000E+00
   0.400000E+01   0.500000E+02   0.000000E+00
   0.600000E+01   0.000000E+00   0.000000E+00
   0.600000E+01   0.200000E+01   0.000000E+00
   0.600000E+01   0.400000E+01   0.000000E+00
   0.600000E+01   0.600000E+01   0.000000E+00
   0.600000E+01   0.800000E+01   0.000000E+00
   0.600000E+01   0.100000E+02   0.000000E+00
   0.600000E+01   0.120000E+02   0.000000E+00
   0.600000E+01   0.140000E+02   0.000000E+00
   0.600000E+01   0.160000E+02   0.000000E+00
   0.600000E+01   0.180000E+02   0.000000E+00
   0.600000E+01   0.200000E+02   0.000000E+00
   0.600000E+01   0.220000E+02   0.000000E+00
   0.600000E+01   0.240000E+02   0.000000E+00
   0.600000E+01   0.260000E+02   0.000000E+00
   0.600000E+01   0.280000E+02   0.000000E+00
   0.600000E+01   0.300000E+02   0.000000E+00
   0.600000E+01   0.320000E+02   0.000000E+00
   0.600000E+01   0.340000E+02   0.000000E+00
   0.600000E+01   0.360000E+02   0.000000E+00
   0.600000E+01   0.380000E+02   0.000000E+00
   0.600000E+01   0.400000E+02   0.000000E+00
   0.600000E+01   0.420000E+02   0.000000E+00
   0.600000E+01   0.440000E+02   0.000000E+00
   0.600000E+01   0.460000E+02   0.000000E+00
   0.600000E+01   0.480000E+02   0.000000E+00
   0.600000E+01   0.500000E+02   0.000000E+00
   0.800000E+01   0.000000E+00   0.000000E+00
   0.800000E+01   0.200000E+01   0.000000E+00
   0.800000E+01   0.400000E+01   0.000000E+00
   0.800000E+01   0.600000E+01   0.000000E+00
   0.800000E+01   0.800000E+01   0.000000E+00
   0.800000E+01   0.100000E+02   0.000000E+00
   0.800000E+01   0.120000E+02   0.000000E+00
   0.800000E+01   0.140000E+02   0.000000E+00
   0.800000E+01   0.160000E+02   0.000000E+00
   0.800000E+01   0.180000E+02   0.000000E+00
   0.800000E+01   0.200000E+02   0.000000E+00
   0.800000E+01   0.220000E+02   0.000000E+00
   0.800000E+01   0.240000E+02   0.000000E+00
   0.800000E+01   0.260000E+02   0.000000E+00
   0.800000E+01   0.280000E+02   0.000000E+00
   0.800000E+01   0.300000E+02   0.000000E+00
   0.800000E+01   0.320000E+02   0.000000E+00
   0.800000E+01   0.340000E+02   0.000000E+00
   0.800000E+01   0.360000E+02   0.000000E+00
   0.800000E+01   0.380000E+02   0.000000E+00
   0.800000E+01   0.400000E+02   0.000000E+00
   0.800000E+01   0.420000E+02   0.000000E+00
   0.800000E+01   0.440000E+02   0.000000E+00
   0.800000E+01   0.460000E+02   0.000000E+00
   0.800000E+01   0.480000E+02   0.000000E+00
   0.800000E+01   0.500000E+02   0.000000E+00
   0.100000E+02   0.000000E+00   0.000000E+00
   0.100000E+02   0.200000E+01   0.000000E+00
   0.100000E+02   0.400000E+01   0.000000E+00
   0.100000E+02   0.600000E+01   0.000000E+00
   0.100000E+02   0.800000E+01   0.000000E+00
   0.100000E+02   0.100000E+02   0.000000E+00
   0.100000E+02   0.120000E+02   0.000000E+00
   0.100000E+02   0.140000E+02   0.000000E+00
   0.100000E+02   0.160000E+02   0.000000E+00
   0.100000E+02   0.180000E+02   0.000000E+00
   0.100000E+02   0.200000E+02   0.000000E+00
   0.100000E+02   0.220000E+02   0.000000E+00
   0.100000E+02   0.240000E+02   0.000000E+00
   0.100000E+02   0.260000E+02   0.000000E+00
   0.100000E+02   0.280000E+02   0.000000E+00
   0.100000E+02   0.300000E+02   0.000000E+00
   0.100000E+02   0.320000E+02   0.000000E+00
   0.100000E+02   0.340000E+02   0.000000E+00
   0.100000E+02   0.360000E+02   0.000000E+00
   0.100000E+02   0.380000E+02   0.000000E+00
   0.100000E+02   0.400000E+02   0.000000E+00
   0.100000E+02   0.420000E+02   0.000000E+00
   0.100000E+02   0.440000E+02   0.000000E+00
   0.100000E+02   0.460000E+02   0.000000E+00
   0.100000E+02   0.480000E+02   0.000000E+00
   0.100000E+02   0.500000E+02   0.000000E+00
   0.120000E+02   0.000000E+00   0.000000E+00
   0.120000E+02   0.200000E+01   0.000000E+00
   0.120000E+02   0.400000E+01   0.000000E+00
   0.120000E+02   0.600000E+01   0.000000E+00
   0.120000E+02   0.800000E+01   0.000000E+00
   0.120000E+02   0.100000E+02   0.000000E+00
   0.120000E+02   0.120000E+02   0.000000E+00
   0.120000E+02   0.140000E+02   0.000000E+00
   0.120000E+02   0.160000E+02   0.000000E+00
   0.120000E+02   0.180000E+02   0.000000E+00
   0.120000E+02   0.200000E+02   0.000000E+00
   0.120000E+02   0.220000E+02   0.000000E+00
   0.120000E+02   0.240000E+02   0.000000E+00
   0.120000E+02   0.260000E+02   0.000000E+00
   0.120000E+02   0.280000E+02   0.000000E+00
   0.120000E+02   0.300000E+02   0.000000E+00
   0.120000E+02   0.320000E+02   0.000000E+00
   0.120000E+02   0.340000E+02   0.000000E+00
   0.120000E+02   0.360000E+02   0.000000E+00
   0.120000E+02   0.380000E+02   0.000000E+00
   0.120000E+02   0.400000E+02   0.000000E+00
   0.120000E+02   0.420000E+02   0.000000E+00
   0.120000E+02   0.440000E+02   0.000000E+00
   0.120000E+02   0.460000E+02   0.000000E+00
   0.120000E+02   0.480000E+02   0.000000E+00
   0.120000E+02   0.500000E+02   0.000000E+00
   0.140000E+02   0.000000E+00   0.000000E+00
   0.140000E+02   0.200000E+01   0.000000E+00
   0.140000E+02   0.400000E+01   0.000000E+00
   0.140000E+02   0.600000E+01   0.000000E+00
   0.140000E+02   0.800000E+01   0.000000E+00
   0.140000E+02   0.100000E+02   0.000000E+00
   0.140000E+02   0.120000E+02   0.000000E+00
   0.140000E+02   0.140000E+02   0.000000E+00
   0.140000E+02   0.160000E+02   0.000000E+00
   0.140000E+02   0.180000E+02   0.000000E+00
   0.140000E+02   0.200000E+02   0.000000E+00
   0.140000E+02   0.220000E+02   0.000000E+00
   0.140000E+02   0.240000E+02   0.000000E+00
   0.140000E+02   0.260000E+02   0.000000E+00
   0.140000E+02   0.280000E+02   0.000000E+00
   0.140000E+02   0.300000E+02   0.000000E+00
   0.140000E+02   0.320000E+02   0.000000E+00
   0.140000E+02   0.340000E+02   0.000000E+00
   0.140000E+02   0.360000E+02   0.000000E+00
   0.140000E+02   0.380000E+02   0.000000E+00
   0.140000E+02   0.400000E+02   0.000000E+00
   0.140000E+02   0.420000E+02   0.000000E+00
   0.140000E+02   0.440000E+02   0.000000E+00
   0.140000E+02   0.460000E+02   0.000000E+00
   0.140000E+02   0.480000E+02   0.000000E+00
   0.140000E+02   0.500000E+02   0.000000E+00
   0.160000E+02   0.000000E+00   0.000000E+00
   0.160000E+02   0.200000E+01   0.000000E+00
   0.160000E+02   0.400000E+01   0.000000E+00
   0.160000E+02   0.600000E+01   0.000000E+00
   0.160000E+02   0.800000E+01   0.000000E+00
   0.160000E+02   0.100000E+02   0.000000E+00
   0.160000E+02   0.120000E+02   0.000000E+00
   0.160000E+02   0.140000E+02   0.000000E+00
   0.160000E+02   0.160000E+02   0.000000E+00
   0.160000E+02   0.180000E+02   0.000000E+00
   0.160000E+02   0.200000E+02   0.000000E+00
   0.160000E+02   0.220000E+02   0.000000E+00
   0.160000E+02   0.240000E+02   0.000000E+00
   0.160000E+02   0.260000E+02   0.000000E+00
   0.160000E+02   0.280000E+02   0.000000E+00
   0.160000E+02   0.300000E+02   0.000000E+00
   0.160000E+02   0.320000E+02   0.000000E+00
   0.160000E+02   0.340000E+02   0.000000E+00
   0.160000E+02   0.360000E+02   0.000000E+00
   0.160000E+02   0.380000E+02   0.000000E+00
   0.160000E+02   0.400000E+02   0.000000E+00
   0.160000E+02   0.420000E+02   0.000000E+00
   0.160000E+02   0.440000E+02   0.000000E+00
   0.160000E+02   0.460000E+02   0.000000E+00
   0.160000E+02   0.480000E+02   0.000000E+00
   0.160000E+02   0.500000E+02   0.000000E+00
   0.180000E+02   0.000000E+00   0.000000E+00
   0.180000E+02   0.200000E+01   0.000000E+00
   0.180000E+02   0.400000E+01   0.000000E+00
   0.180000E+02   0.600000E+01   0.000000E+00
   0.180000E+02   0.800000E+01   0.000000E+00
   0.180000E+02   0.100000E+02   0.000000E+00
   0.180000E+02   0.120000E+02   0.000000E+00
   0.180000E+02   0.140000E+02   0.000000E+00
   0.180000E+02   0.160000E+02   0.000000E+00
   0.180000E+02   0.180000E+02   0.000000E+00
   0.180000E+02   0.200000E+02   0.000000E+00
   0.180000E+02   0.220000E+02   0.000000E+00
   0.180000E+02   0.240000E+02   0.000000E+00
   0.180000E+02   0.260000E+02   0.000000E+00
   0.180000E+02   0.280000E+02   0.000000E+00
   0.180000E+02   0.300000E+02   0.000000E+00
   0.180000E+02   0.320000E+02   0.000000E+00
   0.180000E+02   0.340000E+02   0.000000E+00
   0.180000E+02   0.360000E+02   0.000000E+00
   0.180000E+02   0.380000E+02   0.000000E+00
   0.180000E+02   0.400000E+02   0.000000E+00
   0.180000E+02   0.420000E+02   0.000000E+00
   0.180000E+02   0.440000E+02   0.000000E+00
   0.180000E+02   0.460000E+02   0.000000E+00
   0.180000E+02   0.480000E+02   0.000000E+00
   0.180000E+02   0.500000E+02   0.000000E+00
   0.200000E+02   0.000000E+00   0.000000E+00
   0.200000E+02   0.200000E+01   0.000000E+00
   0.200000E+02   0.400000E+01   0.000000E+00
   0.200000E+02   0.600000E+01   0.000000E+00
   0.200000E+02   0.800000E+01   0.000000E+00
   0.200000E+02   0.100000E+02   0.000000E+00
   0.200000E+02   0.120000E+02   0.000000E+00
   0.200000E+02   0.140000E+02   0.000000E+00
   0.200000E+02   0.160000E+02   0.000000E+00
   0.200000E+02   0.180000E+02   0.000000E+00
   0.200000E+02   0.200000E+02   0.000000E+00
   0.200000E+02   0.220000E+02   0.000000E+00
   0.200000E+02   0.240000E+02   0.000000E+00
   0.200000E+02   0.260000E+02   0.000000E+00
   0.200000E+02   0.280000E+02   0.000000E+00
   0.200000E+02   0.300000E+02   0.000000E+00
   0.200000E+02   0.320000E+02   0.000000E+00
   0.200000E+02   0.340000E+02   0.000000E+00
   0.200000E+02   0.360000E+02   0.000000E+00
   0.200000E+02   0.380000E+02   0.000000E+00
   0.200000E+02   0.400000E+02   0.000000E+00
   0.200000E+02   0.420000E+02   0.000000E+00
   0.200000E+02   0.440000E+02   0.000000E+00
   0.200000E+02   0.460000E+02   0.000000E+00
   0.200000E+02   0.480000E+02   0.000000E+00
   0.200000E+02   0.500000E+02   0.000000E+00
   0.220000E+02   0.000000E+00   0.000000E+00
   0.220000E+02   0.200000E+01   0.000000E+00
   0.220000E+02   0.400000E+01   0.000000E+00
   0.220000E+02   0.600000E+01   0.000000E+00
   0.220000E+02   0.800000E+01   0.000000E+00
   0.220000E+02   0.100000E+02   0.000000E+00
   0.220000E+02   0.120000E+02   0.000000E+00
   0.220000E+02   0.140000E+02   0.000000E+00
   0.220000E+02   0.160000E+02   0.000000E+00
   0.220000E+02   0.180000E+02   0.000000E+00
   0.220000E+02   0.200000E+02   0.000000E+00
   0.220000E+02   0.220000E+02   0.000000E+00
   0.220000E+02   0.240000E+02   0.000000E+00
   0.220000E+02   0.260000E+02   0.000000E+00
   0.220000E+02   0.280000E+02   0.000000E+00
   0.220000E+02   0.300000E+02   0.000000E+00
   0.220000E+02   0.320000E+02   0.000000E+00
   0.220000E+02   0.340000E+02   0.000000E+00
   0.220000E+02   0.360000E+02   0.000000E+00
   0.220000E+02   0.380000E+02   0.000000E+00
   0.220000E+02   0.400000E+02   0.000000E+00
   0.220000E+02   0.420000E+02   0.000000E+00
   0.220000E+02   0.440000E+02   0.000000E+00
   0.220000E+02   0.460000E+02   0.000000E+00
   0.220000E+02   0.480000E+02   0.000000E+00
   0.220000E+02   0.500000E+02   0.000000E+00
   0.240000E+02   0.000000E+00   0.000000E+00
   0.240000E+02   0.200000E+01   0.000000E+00
   0.240000E+02   0.400000E+01   0.000000E+00
   0.240000E+02   0.600000E+01   0.000000E+00
   0.240000E+02   0.800000E+01   0.000000E+00
   0.240000E+02   0.100000E+02   0.000000E+00
   0.240000E+02   0.120000E+02   0.000000E+00
   0.240000E+02   0.140000E+02   0.000000E+00
   0.240000E+02   0.160000E+02   0.000000E+00
   0.240000E+02   0.180000E+02   0.000000E+00
   0.240000E+02   0.200000E+02   0.000000E+00
   0.240000E+02   0.220000E+02   0.000000E+00
   0.240000E+02   0.240000E+02   0.000000E+00
   0.240000E+02   0.260000E+02   0.000000E+00
   0.240000E+02   0.280000E+02   0.000000E+00
   0.240000E+02   0.300000E+02   0.000000E+00
   0.240000E+02   0.320000E+02   0.000000E+00
   0.240000E+02   0.340000E+02   0.000000E+00
   0.240000E+02   0.360000E+02   0.000000E+00
   0.240000E+02   0.380000E+02   0.000000E+00
   0.240000E+02   0.400000E+02   0.000000E+00
   0.240000E+02   0.420000E+02   0.000000E+00
   0.240000E+02   0.440000E+02   0.000000E+00
   0.240000E+02   0.460000E+02   0.000000E+00
   0.240000E+02   0.480000E+02   0.000000E+00
   0.240000E+02   0.500000E+02   0.000000E+00
   0.260000E+02   0.000000E+00   0.000000E+00
   0.260000E+02   0.200000E+01   0.000000E+00
   0.260000E+02   0.400000E+01   0.000000E+00
   0.260000E+02   0.600000E+01   0.000000E+00
   0.260000E+02   0.800000E+01   0.000000E+00
   0.260000E+02   0.100000E+02   0.000000E+00
   0.260000E+02   0.120000E+02   0.000000E+00
   0.260000E+02   0.140000E+02   0.000000E+00
   0.260000E+02   0.160000E+02   0.000000E+00
   0.260000E+02   0.180000E+02   0.000000E+00
   0.260000E+02   0.200000E+02   0.000000E+00
   0.260000E+02   0.220000E+02   0.000000E+00
   0.260000E+02   0.240000E+02   0.000000E+00
   0.260000E+02   0.260000E+02   0.000000E+00
   0.260000E+02   0.280000E+02   0.000000E+00
   0.260000E+02   0.300000E+02   0.000000E+00
   0.260000E+02   0.320000E+02   0.000000E+00
   0.260000E+02   0.340000E+02   0.000000E+00
   0.260000E+02   0.360000E+02   0.000000E+00
   0.260000E+02   0.380000E+02   0.000000E+00
   0.260000E+02   0.400000E+02   0.000000E+00
   0.260000E+02   0.420000E+02   0.000000E+00
   0.260000E+02   0.440000E+02   0.000000E+00
   0.260000E+02   0.460000E+02   0.000000E+00
   0.260000E+02   0.480000E+02   0.000000E+00
   0.260000E+02   0.500000E+02   0.000000E+00
   0.280000E+02   0.000000E+00   0.000000E+00
   0.280000E+02   0.200000E+01   0.000000E+00
   0.280000E+02   0.400000E+01   0.000000E+00
   0.280000E+02   0.600000E+01   0.000000E+00
   0.280000E+02   0.800000E+01   0.000000E+00
   0.280000E+02   0.100000E+02   0.000000E+00
   0.280000E+02   0.120000E+02   0.000000E+00
   0.280000E+02   0.140000E+02   0.000000E+00
   0.280000E+02   0.160000E+02   0.000000E+00
   0.280000E+02   0.180000E+02   0.000000E+00
   0.280000E+02   0.200000E+02   0.000000E+00
   0.280000E+02   0.220000E+02   0.000000E+00
   0.280000E+02   0.240000E+02   0.000000E+00
   0.280000E+02   0.260000E+02   0.000000E+00
   0.280000E+02   0.280000E+02   0.000000E+00
   0.280000E+02   0.300000E+02   0.000000E+00
   0.280000E+02   0.320000E+02   0.000000E+00
   0.280000E+02   0.340000E+02   0.000000E+00
   0.280000E+02   0.360000E+02   0.000000E+00
   0.280000E+02   0.380000E+02   0.000000E+00
   0.280000E+02   0.400000E+02   0.000000E+00
   0.280000E+02   0.420000E+02   0.000000E+00
   0.280000E+02   0.440000E+02   0.000000E+00
   0.280000E+02   0.460000E+02   0.000000E+00
   0.280000E+02   0.480000E+02   0.000000E+00
   0.280000E+02   0.500000E+02   0.000000E+00
   0.300000E+02   0.000000E+00   0.000000E+00
   0.300000E+02   0.200000E+01   0.000000E+00
   0.300000E+02   0.400000E+01   0.000000E+00
   0.300000E+02   0.600000E+01   0.000000E+00
   0.300000E+02   0.800000E+01   0.000000E+00
   0.300000E+02   0.100000E+02   0.000000E+00
   0.300000E+02   0.120000E+02   0.000000E+00
   0.300000E+02   0.140000E+02   0.000000E+00
   0.300000E+02   0.160000E+02   0.000000E+00
   0.300000E+02   0.180000E+02   0.000000E+00
   0.300000E+02   0.200000E+02   0.000000E+00
   0.300000E+02   0.220000E+02   0.000000E+00
   0.300000E+02   0.240000E+02   0.000000E+00
   0.300000E+02   0.260000E+02   0.000000E+00
   0.300000E+02   0.280000E+02   0.000000E+00
   0.300000E+02   0.300000E+02   0.000000E+00
   0.300000E+02   0.320000E+02   0.000000E+00
   0.300000E+02   0.340000E+02   0.000000E+00
   0.300000E+02   0.360000E+02   0.000000E+00
   0.300000E+02   0.380000E+02   0.000000E+00
   0.300000E+02   0.400000E+02   0.000000E+00
   0.300000E+02   0.420000E+02   0.000000E+00
   0.300000E+02   0.440000E+02   0.000000E+00
   0.300000E+02   0.460000E+02   0.000000E+00
   0.300000E+02   0.480000E+02   0.000000E+00
   0.300000E+02   0.500000E+02   0.000000E+00
   0.320000E+02   0.000000E+00   0.000000E+00
   0.320000E+02   0.200000E+01   0.000000E+00
   0.320000E+02   0.400000E+01   0.000000E+00
   0.320000E+02   0.600000E+01   0.000000E+00
   0.320000E+02   0.800000E+01   0.000000E+00
   0.320000E+02   0.100000E+02   0.000000E+00
   0.320000E+02   0.120000E+02   0.000000E+00
   0.320000E+02   0.140000E+02   0.000000E+00
   0.320000E+02   0.160000E+02   0.000000E+00
   0.320000E+02   0.180000E+02   0.000000E+00
   0.320000E+02   0.200000E+02   0.000000E+00
   0.320000E+02   0.220000E+02   0.000000E+00
   0.320000E+02   0.240000E+02   0.000000E+00
   0.320000E+02   0.260000E+02   0.000000E+00
   0.320000E+02   0.280000E+02   0.000000E+00
   0.320000E+02   0.300000E+02   0.000000E+00
   0.320000E+02   0.320000E+02   0.000000E+00
   0.320000E+02   0.340000E+02   0.000000E+00
   0.320000E+02   0.360000E+02   0.000000E+00
   0.320000E+02   0.380000E+02   0.000000E+00
   0.320000E+02   0.400000E+02   0.000000E+00
   0.320000E+02   0.420000E+02   0.000000E+00
   0.320000E+02   0.440000E+02   0.000000E+00
   0.320000E+02   0.460000E+02   0.000000E+00
   0.320000E+02   0.480000E+02   0.000000E+00
   0.320000E+02   0.500000E+02   0.000000E+00
   0.340000E+02   0.000000E+00   0.000000E+00
   0.340000E+02   0.200000E+01   0.000000E+00
   0.340000E+02   0.400000E+01   0.000000E+00
   0.340000E+02   0.600000E+01   0.000000E+00
   0.340000E+02   0.800000E+01   0.000000E+00
   0.340000E+02   0.100000E+02   0.000000E+00
   0.340000E+02   0.120000E+02   0.000000E+00
   0.340000E+02   0.140000E+02   0.000000E+00
   0.340000E+02   0.160000E+02   0.000000E+00
   0.340000E+02   0.180000E+02   0.000000E+00
   0.340000E+02   0.200000E+02   0.000000E+00
   0.340000E+02   0.220000E+02   0.000000E+00
   0.340000E+02   0.240000E+02   0.000000E+00
   0.340000E+02   0.260000E+02   0.000000E+00
   0.340000E+02   0.280000E+02   0.000000E+00
   0.340000E+02   0.300000E+02   0.000000E+00
   0.340000E+02   0.320000E+02   0.000000E+00
   0.340000E+02   0.340000E+02   0.000000E+00
   0.340000E+02   0.360000E+02   0.000000E+00
   0.340000E+02   0.380000E+02   0.000000E+00
   0.340000E+02   0.400000E+02   0.000000E+00
   0.340000E+02   0.420000E+02   0.000000E+00
   0.340000E+02   0.440000E+02   0.000000E+00
   0.340000E+02   0.460000E+02   0.000000E+00
   0.340000E+02   0.480000E+02   0.000000E+00
   0.340000E+02   0.500000E+02   0.000000E+00
   0.360000E+02   0.000000E+00   0.000000E+00
   0.360000E+02   0.200000E+01   0.000000E+00
   0.360000E+02   0.400000E+01   0.000000E+00
   0.360000E+02   0.600000E+01   0.000000E+00
   0.360000E+02   0.800000E+01   0.000000E+00
   0.360000E+02   0.100000E+02   0.000000E+00
   0.360000E+02   0.120000E+02   0.000000E+00
   0.360000E+02   0.140000E+02   0.000000E+00
   0.360000E+02   0.160000E+02   0.000000E+00
   0.360000E+02   0.180000E+02   0.000000E+00
   0.360000E+02   0.200000E+02   0.000000E+00
   0.360000E+02   0.220000E+02   0.000000E+00
   0.360000E+02   0.240000E+02   0.000000E+00
   0.360000E+02   0.260000E+02   0.000000E+00
   0.360000E+02   0.280000E+02   0.000000E+00
   0.360000E+02   0.300000E+02   0.000000E+00
   0.360000E+02   0.320000E+02   0.000000E+00
   0.360000E+02   0.340000E+02   0.000000E+00
   0.360000E+02   0.360000E+02   0.000000E+00
   0.360000E+02   0.380000E+02   0.000000E+00
   0.360000E+02   0.400000E+02   0.000000E+00
   0.360000E+02   0.420000E+02   0.000000E+00
   0.360000E+02   0.440000E+02   0.000000E+00
   0.360000E+02   0.460000E+02   0.000000E+00
   0.360000E+02   0.480000E+02   0.000000E+00
   0.360000E+02   0.500000E+02   0.000000E+00
   0.380000E+02   0.000000E+00   0.000000E+00
   0.380000E+02   0.200000E+01   0.000000E+00
   0.380000E+02   0.400000E+01   0.000000E+00
   0.380000E+02   0.600000E+01   0.000000E+00
   0.380000E+02   0.800000E+01   0.000000E+00
   0.380000E+02   0.100000E+02   0.000000E+00
   0.380000E+02   0.120000E+02   0.000000E+00
   0.380000E+02   0.140000E+02   0.000000E+00
   0.380000E+02   0.160000E+02   0.000000E+00
   0.380000E+02   0.180000E+02   0.000000E+00
   0.380000E+02   0.200000E+02   0.000000E+00
   0.380000E+02   0.220000E+02   0.000000E+00
   0.380000E+02   0.240000E+02   0.000000E+00
   0.380000E+02   0.260000E+02   0.000000E+00
   0.380000E+02   0.280000E+02   0.000000E+00
   0.380000E+02   0.300000E+02   0.000000E+00
   0.380000E+02   0.320000E+02   0.000000E+00
   0.380000E+02   0.340000E+02   0.000000E+00
   0.380000E+02   0.360000E+02   0.000000E+00
   0.380000E+02   0.380000E+02   0.000000E+00
   0.380000E+02   0.400000E+02   0.000000E+00
   0.380000E+02   0.420000E+02   0.000000E+00
   0.380000E+02   0.440000E+02   0.000000E+00
   0.380000E+02   0.460000E+02   0.000000E+00
   0.380000E+02   0.480000E+02   0.000000E+00
   0.380000E+02   0.500000E+02   0.000000E+00
   0.400000E+02   0.000000E+00   0.000000E+00
   0.400000E+02   0.200000E+01   0.000000E+00
   0.400000E+02   0.400000E+01   0.000000E+00
   0.400000E+02   0.600000E+01   0.000000E+00
   0.400000E+02   0.800000E+01   0.000000E+00
   0.400000E+02   0.100000E+02   0.000000E+00
   0.400000E+02   0.120000E+02   0.000000E+00
   0.400000E+02   0.140000E+02   0.000000E+00
   0.400000E+02   0.160000E+02   0.000000E+00
   0.400000E+02   0.180000E+02   0.000000E+00
   0.400000E+02   0.200000E+02   0.000000E+00
   0.400000E+02   0.220000E+02   0.000000E+00
   0.400000E+02   0.240000E+02   0.000000E+00
   0.400000E+02   0.260000E+02   0.000000E+00
   0.400000E+02   0.280000E+02   0.000000E+00
   0.400000E+02   0.300000E+02   0.000000E+00
   0.400000E+02   0.320000E+02   0.000000E+00
   0.400000E+02   0.340000E+02   0.000000E+00
   0.400000E+02   0.360000E+02   0.000000E+00
   0.400000E+02   0.380000E+02   0.000000E+00
   0.400000E+02   0.400000E+02   0.000000E+00
   0.400000E+02   0.420000E+02   0.000000E+00
   0.400000E+02   0.440000E+02   0.000000E+00
   0.400000E+02   0.460000E+02   0.000000E+00
   0.400000E+02   0.480000E+02   0.000000E+00
   0.400000E+02   0.500000E+02   0.000000E+00
   0.420000E+02   0.000000E+00   0.000000E+00
   0.420000E+02   0.200000E+01   0.000000E+00
   0.420000E+02   0.400000E+01   0.000000E+00
   0.420000E+02   0.600000E+01   0.000000E+00
   0.420000E+02   0.800000E+01   0.000000E+00
   0.420000E+02   0.100000E+02   0.000000E+00
   0.420000E+02   0.120000E+02   0.000000E+00
   0.420000E+02   0.140000E+02   0.000000E+00
   0.420000E+02   0.160000E+02   0.000000E+00
   0.420000E+02   0.180000E+02   0.000000E+00
   0.420000E+02   0.200000E+02   0.000000E+00
   0.420000E+02   0.220000E+02   0.000000E+00
   0.420000E+02   0.240000E+02   0.000000E+00
   0.420000E+02   0.260000E+02   0.000000E+00
   0.420000E+02   0.280000E+02   0.000000E+00
   0.420000E+02   0.300000E+02   0.000000E+00
   0.420000E+02   0.320000E+02   0.000000E+00
   0.420000E+02   0.340000E+02   0.000000E+00
   0.420000E+02   0.360000E+02   0.000000E+00
   0.420000E+02   0.380000E+02   0.000000E+00
   0.420000E+02   0.400000E+02   0.000000E+00
   0.420000E+02   0.420000E+02   0.000000E+00
   0.420000E+02   0.440000E+02   0.000000E+00
   0.420000E+02   0.460000E+02   0.000000E+00
   0.420000E+02   0.480000E+02   0.000000E+00
   0.420000E+02   0.500000E+02   0.000000E+00
   0.440000E+02   0.000000E+00   0.000000E+00
   0.440000E+02   0.200000E+01   0.000000E+00
   0.440000E+02   0.400000E+01   0.000000E+00
   0.440000E+02   0.600000E+01   0.000000E+00
   0.440000E+02   0.800000E+01   0.000000E+00
   0.440000E+02   0.100000E+02   0.000000E+00
   0.440000E+02   0.120000E+02   0.000000E+00
   0.440000E+02   0.140000E+02   0.000000E+00
   0.440000E+02   0.160000E+02   0.000000E+00
   0.440000E+02   0.180000E+02   0.000000E+00
   0.440000E+02   0.200000E+02   0.000000E+00
   0.440000E+02   0.220000E+02   0.000000E+00
   0.440000E+02   0.240000E+02   0.000000E+00
   0.440000E+02   0.260000E+02   0.000000E+00
   0.440000E+02   0.280000E+02   0.000000E+00
   0.440000E+02   0.300000E+02   0.000000E+00
   0.440000E+02   0.320000E+02   0.000000E+00
   0.440000E+02   0.340000E+02   0.000000E+00
   0.440000E+02   0.360000E+02   0.000000E+00
   0.440000E+02   0.380000E+02   0.000000E+00
   0.440000E+02   0.400000E+02   0.000000E+00
   0.440000E+02   0.420000E+02   0.000000E+00
   0.440000E+02   0.440000E+02   0.000000E+00
   0.440000E+02   0.460000E+02   0.000000E+00
   0.440000E+02   0.480000E+02   0.000000E+00
   0.440000E+02   0.500000E+02   0.000000E+00
   0.460000E+02   0.000000E+00   0.000000E+00
   0.460000E+02   0.200000E+01   0.000000E+00
   0.460000E+02   0.400000E+01   0.000000E+00
   0.460000E+02   0.600000E+01   0.000000E+00
   0.460000E+02   0.800000E+01   0.000000E+00
   0.460000E+02   0.100000E+02   0.000000E+00
   0.460000E+02   0.120000E+02   0.000000E+00
   0.460000E+02   0.140000E+02   0.000000E+00
   0.460000E+02   0.160000E+02   0.000000E+00
   0.460000E+02   0.180000E+02   0.000000E+00
   0.460000E+02   0.200000E+02   0.000000E+00
   0.460000E+02   0.220000E+02   0.000000E+00
   0.460000E+02   0.240000E+02   0.000000E+00
   0.460000E+02   0.260000E+02   0.000000E+00
   0.460000E+02   0.280000E+02   0.000000E+00
   0.460000E+02   0.300000E+02   0.000000E+00
   0.460000E+02   0.320000E+02   0.000000E+00
   0.460000E+02   0.340000E+02   0.000000E+00
   0.460000E+02   0.360000E+02   0.000000E+00
   0.460000E+02   0.380000E+02   0.000000E+00
   0.460000E+02   0.400000E+02   0.000000E+00
   0.460000E+02   0.420000E+02   0.000000E+00
   0.460000E+02   0.440000E+02   0.000000E+00
   0.460000E+02   0.460000E+02   0.000000E+00
   0.460000E+02   0.480000E+02   0.000000E+00
   0.460000E+02   0.500000E+02   0.000000E+00
   0.480000E+02   0.000000E+00   0.000000E+00
   0.480000E+02   0.200000E+01   0.000000E+00
   0.480000E+02   0.400000E+01   0.000000E+00
   0.480000E+02   0.600000E+01   0.000000E+00
   0.480000E+02   0.800000E+01   0.000000E+00
   0.480000E+02   0.100000E+02   0.000000E+00
   0.480000E+02   0.120000E+02   0.000000E+00
   0.480000E+02   0.140000E+02   0.000000E+00
   0.480000E+02   0.160000E+02   0.000000E+00
   0.480000E+02   0.180000E+02   0.000000E+00
   0.480000E+02   0.200000E+02   0.000000E+00
   0.480000E+02   0.220000E+02   0.000000E+00
   0.480000E+02   0.240000E+02   0.000000E+00
   0.480000E+02   0.260000E+02   0.000000E+00
   0.480000E+02   0.280000E+02   0.000000E+00
   0.480000E+02   0.300000E+02   0.000000E+00
   0.480000E+02   0.320000E+02   0.000000E+00
   0.480000E+02   0.340000E+02   0.000000E+00
   0.480000E+02   0.360000E+02   0.000000E+00
   0.480000E+02   0.380000E+02   0.000000E+00
   0.480000E+02   0.400000E+02   0.000000E+00
   0.480000E+02   0.420000E+02   0.000000E+00
   0.480000E+02   0.440000E+02   0.000000E+00
   0.480000E+02   0.460000E+02   0.000000E+00
   0.480000E+02   0.480000E+02   0.000000E+00
   0.480000E+02   0.500000E+02   0.000000E+00