 title="xy fracture velocity field tdays=     20.000"
variables="x","y","vx","vy"
zone i=          0
