Title="convective+conductive heatflux top "
variables="x","y","element_x","alpha","beta","vmag","vperp",  "vz","area","Tref2","conv.flux W/m^2","cond.flux W/m2","totalflx W/m2","T(degC)","head(m)"
zone i=    200,T= "t=     1.0 days"
  0.1000E+01  0.5000E+00     1   -0.78485E+00    0.78540E+00    0.87058E-03   -0.87058E-03   -0.61525E-03    0.20000E+01    0.00000E+00   -0.00000E+00   -0.00000E+00   -0.00000E+00    0.00000E+00   -0.70826E+01
  0.3000E+01  0.5000E+00     2   -0.21310E+00    0.78540E+00    0.29566E-03   -0.24855E-03   -0.62528E-04    0.20000E+01    0.00000E+00   -0.00000E+00   -0.00000E+00   -0.00000E+00    0.00000E+00   -0.10702E+02
  0.5000E+01  0.5000E+00     3   -0.18790E+00    0.78540E+00    0.19377E-03   -0.16019E-03   -0.36195E-04    0.20000E+01    0.00000E+00   -0.00000E+00   -0.00000E+00   -0.00000E+00    0.00000E+00   -0.12620E+02
  0.7000E+01  0.5000E+00     4   -0.13035E+00    0.78540E+00    0.14251E-03   -0.11302E-03   -0.18524E-04    0.20000E+01    0.00000E+00   -0.00000E+00   -0.00000E+00   -0.00000E+00    0.00000E+00   -0.13946E+02
  0.9000E+01  0.5000E+00     5   -0.10186E+00    0.78540E+00    0.11329E-03   -0.87838E-04   -0.11520E-04    0.20000E+01    0.00000E+00   -0.00000E+00   -0.00000E+00   -0.00000E+00    0.00000E+00   -0.14962E+02
  0.1100E+02  0.5000E+00     6   -0.81868E-01    0.78540E+00    0.94472E-04   -0.72041E-04   -0.77256E-05    0.20000E+01    0.00000E+00   -0.00000E+00   -0.00000E+00   -0.00000E+00    0.00000E+00   -0.15790E+02
  0.1300E+02  0.5000E+00     7   -0.67542E-01    0.78540E+00    0.81463E-04   -0.61359E-04   -0.54980E-05    0.20000E+01    0.00000E+00   -0.00000E+00   -0.00000E+00   -0.00000E+00    0.00000E+00   -0.16491E+02
  0.1500E+02  0.5000E+00     8   -0.56667E-01    0.78540E+00    0.72009E-04   -0.53720E-04   -0.40784E-05    0.20000E+01    0.00000E+00   -0.00000E+00   -0.00000E+00   -0.00000E+00    0.00000E+00   -0.17104E+02
  0.1700E+02  0.5000E+00     9   -0.48113E-01    0.78540E+00    0.64885E-04   -0.48034E-04   -0.31206E-05    0.20000E+01    0.00000E+00   -0.00000E+00   -0.00000E+00   -0.00000E+00    0.00000E+00   -0.17651E+02
  0.1900E+02  0.5000E+00    10   -0.41197E-01    0.78540E+00    0.59368E-04   -0.43673E-04   -0.24451E-05    0.20000E+01    0.00000E+00   -0.00000E+00   -0.00000E+00   -0.00000E+00    0.00000E+00   -0.18147E+02
  0.2100E+02  0.5000E+00    11   -0.35487E-01    0.78540E+00    0.55004E-04   -0.40249E-04   -0.19515E-05    0.20000E+01    0.00000E+00   -0.00000E+00   -0.00000E+00   -0.00000E+00    0.00000E+00   -0.18604E+02
  0.2300E+02  0.5000E+00    12   -0.30696E-01    0.78540E+00    0.51495E-04   -0.37513E-04   -0.15805E-05    0.20000E+01    0.00000E+00   -0.00000E+00   -0.00000E+00   -0.00000E+00    0.00000E+00   -0.19030E+02
  0.2500E+02  0.5000E+00    13   -0.26625E-01    0.78540E+00    0.48636E-04   -0.35294E-04   -0.12948E-05    0.20000E+01    0.00000E+00   -0.00000E+00   -0.00000E+00   -0.00000E+00    0.00000E+00   -0.19431E+02
  0.2700E+02  0.5000E+00    14   -0.23128E-01    0.78540E+00    0.46283E-04   -0.33475E-04   -0.10703E-05    0.20000E+01    0.00000E+00   -0.00000E+00   -0.00000E+00   -0.00000E+00    0.00000E+00   -0.19810E+02
  0.2900E+02  0.5000E+00    15   -0.20100E-01    0.78540E+00    0.44331E-04   -0.31971E-04   -0.89101E-06    0.20000E+01    0.00000E+00   -0.00000E+00   -0.00000E+00   -0.00000E+00    0.00000E+00   -0.20173E+02
  0.3100E+02  0.5000E+00    16   -0.17459E-01    0.78540E+00    0.42702E-04   -0.30717E-04   -0.74551E-06    0.20000E+01    0.00000E+00   -0.00000E+00   -0.00000E+00   -0.00000E+00    0.00000E+00   -0.20521E+02
  0.3300E+02  0.5000E+00    17   -0.15141E-01    0.78540E+00    0.41336E-04   -0.29668E-04   -0.62586E-06    0.20000E+01    0.00000E+00   -0.00000E+00   -0.00000E+00   -0.00000E+00    0.00000E+00   -0.20857E+02
  0.3500E+02  0.5000E+00    18   -0.13094E-01    0.78540E+00    0.40189E-04   -0.28787E-04   -0.52623E-06    0.20000E+01    0.00000E+00   -0.00000E+00   -0.00000E+00   -0.00000E+00    0.00000E+00   -0.21183E+02
  0.3700E+02  0.5000E+00    19   -0.11276E-01    0.78540E+00    0.39224E-04   -0.28047E-04   -0.44230E-06    0.20000E+01    0.00000E+00   -0.00000E+00   -0.00000E+00   -0.00000E+00    0.00000E+00   -0.21500E+02
  0.3900E+02  0.5000E+00    20   -0.96522E-02    0.78540E+00    0.38414E-04   -0.27424E-04   -0.37077E-06    0.20000E+01    0.00000E+00   -0.00000E+00   -0.00000E+00   -0.00000E+00    0.00000E+00   -0.21811E+02
  0.4100E+02  0.5000E+00    21   -0.81916E-02    0.78540E+00    0.37736E-04   -0.26901E-04   -0.30912E-06    0.20000E+01    0.00000E+00   -0.00000E+00   -0.00000E+00   -0.00000E+00    0.00000E+00   -0.22116E+02
  0.4300E+02  0.5000E+00    22   -0.68687E-02    0.78540E+00    0.37174E-04   -0.26466E-04   -0.25534E-06    0.20000E+01    0.00000E+00   -0.00000E+00   -0.00000E+00   -0.00000E+00    0.00000E+00   -0.22415E+02
  0.4500E+02  0.5000E+00    23   -0.56611E-02    0.78540E+00    0.36712E-04   -0.26106E-04   -0.20783E-06    0.20000E+01    0.00000E+00   -0.00000E+00   -0.00000E+00   -0.00000E+00    0.00000E+00   -0.22711E+02
  0.4700E+02  0.5000E+00    24   -0.45488E-02    0.78540E+00    0.36340E-04   -0.25813E-04   -0.16530E-06    0.20000E+01    0.00000E+00   -0.00000E+00   -0.00000E+00   -0.00000E+00    0.00000E+00   -0.23003E+02
  0.4900E+02  0.5000E+00    25   -0.35139E-02    0.78540E+00    0.36049E-04   -0.25580E-04   -0.12668E-06    0.20000E+01    0.00000E+00   -0.00000E+00   -0.00000E+00   -0.00000E+00    0.00000E+00   -0.23292E+02
  0.5100E+02  0.5000E+00    26   -0.25406E-02    0.78540E+00    0.35832E-04   -0.25402E-04   -0.91035E-07    0.20000E+01    0.00000E+00   -0.00000E+00   -0.00000E+00   -0.00000E+00    0.00000E+00   -0.23580E+02
  0.5300E+02  0.5000E+00    27   -0.16141E-02    0.78540E+00    0.35684E-04   -0.25273E-04   -0.57600E-07    0.20000E+01    0.00000E+00   -0.00000E+00   -0.00000E+00   -0.00000E+00    0.00000E+00   -0.23866E+02
  0.5500E+02  0.5000E+00    28   -0.72125E-03    0.78540E+00    0.35601E-04   -0.25192E-04   -0.25677E-07    0.20000E+01    0.00000E+00   -0.00000E+00   -0.00000E+00   -0.00000E+00    0.00000E+00   -0.24151E+02
  0.5700E+02  0.5000E+00    29    0.15039E-03    0.78540E+00    0.35581E-04   -0.25156E-04    0.53509E-08    0.20000E+01    0.00000E+00    0.00000E+00   -0.00000E+00    0.00000E+00    0.00000E+00   -0.24436E+02
  0.5900E+02  0.5000E+00    30    0.10121E-02    0.78540E+00    0.35623E-04   -0.25164E-04    0.36053E-07    0.20000E+01    0.00000E+00    0.00000E+00   -0.00000E+00    0.00000E+00    0.00000E+00   -0.24721E+02
  0.6100E+02  0.5000E+00    31    0.18743E-02    0.78540E+00    0.35726E-04   -0.25214E-04    0.66961E-07    0.20000E+01    0.00000E+00    0.00000E+00   -0.00000E+00    0.00000E+00    0.00000E+00   -0.25006E+02
  0.6300E+02  0.5000E+00    32    0.27466E-02    0.78540E+00    0.35891E-04   -0.25309E-04    0.98579E-07    0.20000E+01    0.00000E+00    0.00000E+00   -0.00000E+00    0.00000E+00    0.00000E+00   -0.25293E+02
  0.6500E+02  0.5000E+00    33    0.36377E-02    0.78540E+00    0.36121E-04   -0.25448E-04    0.13139E-06    0.20000E+01    0.00000E+00    0.00000E+00   -0.00000E+00    0.00000E+00    0.00000E+00   -0.25581E+02
  0.6700E+02  0.5000E+00    34    0.45551E-02    0.78540E+00    0.36417E-04   -0.25633E-04    0.16588E-06    0.20000E+01    0.00000E+00    0.00000E+00   -0.00000E+00    0.00000E+00    0.00000E+00   -0.25871E+02
  0.6900E+02  0.5000E+00    35    0.55056E-02    0.78540E+00    0.36785E-04   -0.25867E-04    0.20252E-06    0.20000E+01    0.00000E+00    0.00000E+00   -0.00000E+00    0.00000E+00    0.00000E+00   -0.26164E+02
  0.7100E+02  0.5000E+00    36    0.64943E-02    0.78540E+00    0.37229E-04   -0.26153E-04    0.24177E-06    0.20000E+01    0.00000E+00    0.00000E+00   -0.00000E+00    0.00000E+00    0.00000E+00   -0.26460E+02
  0.7300E+02  0.5000E+00    37    0.75254E-02    0.78540E+00    0.37754E-04   -0.26494E-04    0.28411E-06    0.20000E+01    0.00000E+00    0.00000E+00   -0.00000E+00    0.00000E+00    0.00000E+00   -0.26760E+02
  0.7500E+02  0.5000E+00    38    0.86013E-02    0.78540E+00    0.38367E-04   -0.26895E-04    0.33000E-06    0.20000E+01    0.00000E+00    0.00000E+00   -0.00000E+00    0.00000E+00    0.00000E+00   -0.27064E+02
  0.7700E+02  0.5000E+00    39    0.97238E-02    0.78540E+00    0.39076E-04   -0.27361E-04    0.37996E-06    0.20000E+01    0.00000E+00    0.00000E+00   -0.00000E+00    0.00000E+00    0.00000E+00   -0.27374E+02
  0.7900E+02  0.5000E+00    40    0.10894E-01    0.78540E+00    0.39889E-04   -0.27897E-04    0.43455E-06    0.20000E+01    0.00000E+00    0.00000E+00   -0.00000E+00    0.00000E+00    0.00000E+00   -0.27690E+02
  0.8100E+02  0.5000E+00    41    0.12115E-01    0.78540E+00    0.40817E-04   -0.28510E-04    0.49450E-06    0.20000E+01    0.00000E+00    0.00000E+00   -0.00000E+00    0.00000E+00    0.00000E+00   -0.28012E+02
  0.8300E+02  0.5000E+00    42    0.13397E-01    0.78540E+00    0.41871E-04   -0.29208E-04    0.56093E-06    0.20000E+01    0.00000E+00    0.00000E+00   -0.00000E+00    0.00000E+00    0.00000E+00   -0.28343E+02
  0.8500E+02  0.5000E+00    43    0.14764E-01    0.78540E+00    0.43065E-04   -0.29999E-04    0.63579E-06    0.20000E+01    0.00000E+00    0.00000E+00   -0.00000E+00    0.00000E+00    0.00000E+00   -0.28683E+02
  0.8700E+02  0.5000E+00    44    0.16275E-01    0.78540E+00    0.44420E-04   -0.30894E-04    0.72291E-06    0.20000E+01    0.00000E+00    0.00000E+00   -0.00000E+00    0.00000E+00    0.00000E+00   -0.29033E+02
  0.8900E+02  0.5000E+00    45    0.18066E-01    0.78540E+00    0.45967E-04   -0.31911E-04    0.83039E-06    0.20000E+01    0.00000E+00    0.00000E+00   -0.00000E+00    0.00000E+00    0.00000E+00   -0.29394E+02
  0.9100E+02  0.5000E+00    46    0.20467E-01    0.78540E+00    0.47759E-04   -0.33073E-04    0.97742E-06    0.20000E+01    0.00000E+00    0.00000E+00   -0.00000E+00    0.00000E+00    0.00000E+00   -0.29769E+02
  0.9300E+02  0.5000E+00    47    0.24194E-01    0.78540E+00    0.49911E-04   -0.34428E-04    0.12074E-05    0.20000E+01    0.00000E+00    0.00000E+00   -0.00000E+00    0.00000E+00    0.00000E+00   -0.30160E+02
  0.9500E+02  0.5000E+00    48    0.32711E-01    0.78540E+00    0.52702E-04   -0.36027E-04    0.17236E-05    0.20000E+01    0.00000E+00    0.00000E+00   -0.00000E+00    0.00000E+00    0.00000E+00   -0.30570E+02
  0.9700E+02  0.5000E+00    49    0.43396E-01    0.78540E+00    0.56921E-04   -0.38465E-04    0.24693E-05    0.20000E+01    0.00000E+00    0.00000E+00   -0.00000E+00    0.00000E+00    0.00000E+00   -0.31008E+02
  0.9900E+02  0.5000E+00    50    0.25665E+00    0.78540E+00    0.69655E-04   -0.35138E-04    0.17682E-04    0.20000E+01    0.00000E+00    0.00000E+00   -0.00000E+00    0.00000E+00    0.00000E+00   -0.31505E+02
  0.1010E+03  0.5000E+00    51   -0.32501E+00    0.78540E+00    0.55376E-04   -0.49610E-04    0.17683E-04    0.20000E+01    0.00000E+00    0.00000E+00   -0.00000E+00    0.00000E+00    0.00000E+00   -0.31565E+02
  0.1030E+03  0.5000E+00    52   -0.58846E-01    0.78540E+00    0.42039E-04   -0.31423E-04    0.24724E-05    0.20000E+01    0.00000E+00    0.00000E+00   -0.00000E+00    0.00000E+00    0.00000E+00   -0.31187E+02
  0.1050E+03  0.5000E+00    53   -0.45746E-01    0.78540E+00    0.37805E-04   -0.27926E-04    0.17288E-05    0.20000E+01    0.00000E+00    0.00000E+00   -0.00000E+00    0.00000E+00    0.00000E+00   -0.30868E+02
  0.1070E+03  0.5000E+00    54   -0.34719E-01    0.78540E+00    0.34996E-04   -0.25590E-04    0.12148E-05    0.20000E+01    0.00000E+00    0.00000E+00   -0.00000E+00    0.00000E+00    0.00000E+00   -0.30577E+02
  0.1090E+03  0.5000E+00    55   -0.30074E-01    0.78540E+00    0.32825E-04   -0.23898E-04    0.98706E-06    0.20000E+01    0.00000E+00    0.00000E+00   -0.00000E+00    0.00000E+00    0.00000E+00   -0.30306E+02
  0.1110E+03  0.5000E+00    56   -0.27170E-01    0.78540E+00    0.31010E-04   -0.22515E-04    0.84245E-06    0.20000E+01    0.00000E+00    0.00000E+00   -0.00000E+00    0.00000E+00    0.00000E+00   -0.30051E+02
  0.1130E+03  0.5000E+00    57   -0.25059E-01    0.78540E+00    0.29437E-04   -0.21330E-04    0.73758E-06    0.20000E+01    0.00000E+00    0.00000E+00   -0.00000E+00    0.00000E+00    0.00000E+00   -0.29809E+02
  0.1150E+03  0.5000E+00    58   -0.23293E-01    0.78540E+00    0.28049E-04   -0.20290E-04    0.65328E-06    0.20000E+01    0.00000E+00    0.00000E+00   -0.00000E+00    0.00000E+00    0.00000E+00   -0.29579E+02
  0.1170E+03  0.5000E+00    59   -0.21686E-01    0.78540E+00    0.26816E-04   -0.19369E-04    0.58150E-06    0.20000E+01    0.00000E+00    0.00000E+00   -0.00000E+00    0.00000E+00    0.00000E+00   -0.29360E+02
  0.1190E+03  0.5000E+00    60   -0.20161E-01    0.78540E+00    0.25718E-04   -0.18548E-04    0.51845E-06    0.20000E+01    0.00000E+00    0.00000E+00   -0.00000E+00    0.00000E+00    0.00000E+00   -0.29150E+02
  0.1210E+03  0.5000E+00    61   -0.18686E-01    0.78540E+00    0.24738E-04   -0.17816E-04    0.46224E-06    0.20000E+01    0.00000E+00    0.00000E+00   -0.00000E+00    0.00000E+00    0.00000E+00   -0.28948E+02
  0.1230E+03  0.5000E+00    62   -0.17256E-01    0.78540E+00    0.23865E-04   -0.17164E-04    0.41181E-06    0.20000E+01    0.00000E+00    0.00000E+00   -0.00000E+00    0.00000E+00    0.00000E+00   -0.28753E+02
  0.1250E+03  0.5000E+00    63   -0.15874E-01    0.78540E+00    0.23088E-04   -0.16583E-04    0.36649E-06    0.20000E+01    0.00000E+00    0.00000E+00   -0.00000E+00    0.00000E+00    0.00000E+00   -0.28566E+02
  0.1270E+03  0.5000E+00    64   -0.14546E-01    0.78540E+00    0.22397E-04   -0.16066E-04    0.32578E-06    0.20000E+01    0.00000E+00    0.00000E+00   -0.00000E+00    0.00000E+00    0.00000E+00   -0.28384E+02
  0.1290E+03  0.5000E+00    65   -0.13281E-01    0.78540E+00    0.21783E-04   -0.15606E-04    0.28928E-06    0.20000E+01    0.00000E+00    0.00000E+00   -0.00000E+00    0.00000E+00    0.00000E+00   -0.28207E+02
  0.1310E+03  0.5000E+00    66   -0.12083E-01    0.78540E+00    0.21237E-04   -0.15198E-04    0.25660E-06    0.20000E+01    0.00000E+00    0.00000E+00   -0.00000E+00    0.00000E+00    0.00000E+00   -0.28035E+02
  0.1330E+03  0.5000E+00    67   -0.10957E-01    0.78540E+00    0.20754E-04   -0.14835E-04    0.22740E-06    0.20000E+01    0.00000E+00    0.00000E+00   -0.00000E+00    0.00000E+00    0.00000E+00   -0.27867E+02
  0.1350E+03  0.5000E+00    68   -0.99055E-02    0.78540E+00    0.20326E-04   -0.14515E-04    0.20134E-06    0.20000E+01    0.00000E+00    0.00000E+00   -0.00000E+00    0.00000E+00    0.00000E+00   -0.27703E+02
  0.1370E+03  0.5000E+00    69   -0.89291E-02    0.78540E+00    0.19948E-04   -0.14230E-04    0.17811E-06    0.20000E+01    0.00000E+00    0.00000E+00   -0.00000E+00    0.00000E+00    0.00000E+00   -0.27542E+02
  0.1390E+03  0.5000E+00    70   -0.80271E-02    0.78540E+00    0.19613E-04   -0.13979E-04    0.15743E-06    0.20000E+01    0.00000E+00    0.00000E+00   -0.00000E+00    0.00000E+00    0.00000E+00   -0.27383E+02
  0.1410E+03  0.5000E+00    71   -0.71974E-02    0.78540E+00    0.19317E-04   -0.13757E-04    0.13903E-06    0.20000E+01    0.00000E+00    0.00000E+00   -0.00000E+00    0.00000E+00    0.00000E+00   -0.27228E+02
  0.1430E+03  0.5000E+00    72   -0.64375E-02    0.78540E+00    0.19056E-04   -0.13561E-04    0.12267E-06    0.20000E+01    0.00000E+00    0.00000E+00   -0.00000E+00    0.00000E+00    0.00000E+00   -0.27074E+02
  0.1450E+03  0.5000E+00    73   -0.57440E-02    0.78540E+00    0.18825E-04   -0.13388E-04    0.10813E-06    0.20000E+01    0.00000E+00    0.00000E+00   -0.00000E+00    0.00000E+00    0.00000E+00   -0.26923E+02
  0.1470E+03  0.5000E+00    74   -0.51134E-02    0.78540E+00    0.18622E-04   -0.13235E-04    0.95223E-07    0.20000E+01    0.00000E+00    0.00000E+00   -0.00000E+00    0.00000E+00    0.00000E+00   -0.26773E+02
  0.1490E+03  0.5000E+00    75   -0.45418E-02    0.78540E+00    0.18444E-04   -0.13101E-04    0.83768E-07    0.20000E+01    0.00000E+00    0.00000E+00   -0.00000E+00    0.00000E+00    0.00000E+00   -0.26625E+02
  0.1510E+03  0.5000E+00    76   -0.40254E-02    0.78540E+00    0.18287E-04   -0.12983E-04    0.73611E-07    0.20000E+01    0.00000E+00    0.00000E+00   -0.00000E+00    0.00000E+00    0.00000E+00   -0.26478E+02
  0.1530E+03  0.5000E+00    77   -0.35602E-02    0.78540E+00    0.18149E-04   -0.12879E-04    0.64614E-07    0.20000E+01    0.00000E+00    0.00000E+00   -0.00000E+00    0.00000E+00    0.00000E+00   -0.26332E+02
  0.1550E+03  0.5000E+00    78   -0.31426E-02    0.78540E+00    0.18028E-04   -0.12788E-04    0.56655E-07    0.20000E+01    0.00000E+00    0.00000E+00   -0.00000E+00    0.00000E+00    0.00000E+00   -0.26187E+02
  0.1570E+03  0.5000E+00    79   -0.27688E-02    0.78540E+00    0.17922E-04   -0.12708E-04    0.49622E-07    0.20000E+01    0.00000E+00    0.00000E+00   -0.00000E+00    0.00000E+00    0.00000E+00   -0.26043E+02
  0.1590E+03  0.5000E+00    80   -0.24352E-02    0.78540E+00    0.17829E-04   -0.12638E-04    0.43418E-07    0.20000E+01    0.00000E+00    0.00000E+00   -0.00000E+00    0.00000E+00    0.00000E+00   -0.25900E+02
  0.1610E+03  0.5000E+00    81   -0.21384E-02    0.78540E+00    0.17748E-04   -0.12576E-04    0.37953E-07    0.20000E+01    0.00000E+00    0.00000E+00   -0.00000E+00    0.00000E+00    0.00000E+00   -0.25758E+02
  0.1630E+03  0.5000E+00    82   -0.18751E-02    0.78540E+00    0.17677E-04   -0.12523E-04    0.33146E-07    0.20000E+01    0.00000E+00    0.00000E+00   -0.00000E+00    0.00000E+00    0.00000E+00   -0.25616E+02
  0.1650E+03  0.5000E+00    83   -0.16421E-02    0.78540E+00    0.17615E-04   -0.12476E-04    0.28925E-07    0.20000E+01    0.00000E+00    0.00000E+00   -0.00000E+00    0.00000E+00    0.00000E+00   -0.25475E+02
  0.1670E+03  0.5000E+00    84   -0.14364E-02    0.78540E+00    0.17561E-04   -0.12435E-04    0.25224E-07    0.20000E+01    0.00000E+00    0.00000E+00   -0.00000E+00    0.00000E+00    0.00000E+00   -0.25335E+02
  0.1690E+03  0.5000E+00    85   -0.12552E-02    0.78540E+00    0.17514E-04   -0.12400E-04    0.21984E-07    0.20000E+01    0.00000E+00    0.00000E+00   -0.00000E+00    0.00000E+00    0.00000E+00   -0.25194E+02
  0.1710E+03  0.5000E+00    86   -0.10959E-02    0.78540E+00    0.17473E-04   -0.12369E-04    0.19149E-07    0.20000E+01    0.00000E+00    0.00000E+00   -0.00000E+00    0.00000E+00    0.00000E+00   -0.25054E+02
  0.1730E+03  0.5000E+00    87   -0.95603E-03    0.78540E+00    0.17437E-04   -0.12342E-04    0.16671E-07    0.20000E+01    0.00000E+00    0.00000E+00   -0.00000E+00    0.00000E+00    0.00000E+00   -0.24915E+02
  0.1750E+03  0.5000E+00    88   -0.83337E-03    0.78540E+00    0.17406E-04   -0.12318E-04    0.14506E-07    0.20000E+01    0.00000E+00    0.00000E+00   -0.00000E+00    0.00000E+00    0.00000E+00   -0.24775E+02
  0.1770E+03  0.5000E+00    89   -0.72587E-03    0.78540E+00    0.17379E-04   -0.12298E-04    0.12615E-07    0.20000E+01    0.00000E+00    0.00000E+00   -0.00000E+00    0.00000E+00    0.00000E+00   -0.24636E+02
  0.1790E+03  0.5000E+00    90   -0.63165E-03    0.78540E+00    0.17356E-04   -0.12280E-04    0.10963E-07    0.20000E+01    0.00000E+00    0.00000E+00   -0.00000E+00    0.00000E+00    0.00000E+00   -0.24497E+02
  0.1810E+03  0.5000E+00    91   -0.54907E-03    0.78540E+00    0.17335E-04   -0.12265E-04    0.95183E-08    0.20000E+01    0.00000E+00    0.00000E+00   -0.00000E+00    0.00000E+00    0.00000E+00   -0.24358E+02
  0.1830E+03  0.5000E+00    92   -0.47663E-03    0.78540E+00    0.17318E-04   -0.12251E-04    0.82541E-08    0.20000E+01    0.00000E+00    0.00000E+00   -0.00000E+00    0.00000E+00    0.00000E+00   -0.24220E+02
  0.1850E+03  0.5000E+00    93   -0.41300E-03    0.78540E+00    0.17302E-04   -0.12240E-04    0.71459E-08    0.20000E+01    0.00000E+00    0.00000E+00   -0.00000E+00    0.00000E+00    0.00000E+00   -0.24081E+02
  0.1870E+03  0.5000E+00    94   -0.35701E-03    0.78540E+00    0.17289E-04   -0.12230E-04    0.61724E-08    0.20000E+01    0.00000E+00    0.00000E+00   -0.00000E+00    0.00000E+00    0.00000E+00   -0.23943E+02
  0.1890E+03  0.5000E+00    95   -0.30763E-03    0.78540E+00    0.17278E-04   -0.12221E-04    0.53151E-08    0.20000E+01    0.00000E+00    0.00000E+00   -0.00000E+00    0.00000E+00    0.00000E+00   -0.23805E+02
  0.1910E+03  0.5000E+00    96   -0.26395E-03    0.78540E+00    0.17268E-04   -0.12213E-04    0.45578E-08    0.20000E+01    0.00000E+00    0.00000E+00   -0.00000E+00    0.00000E+00    0.00000E+00   -0.23667E+02
  0.1930E+03  0.5000E+00    97   -0.22518E-03    0.78540E+00    0.17259E-04   -0.12207E-04    0.38864E-08    0.20000E+01    0.00000E+00    0.00000E+00   -0.00000E+00    0.00000E+00    0.00000E+00   -0.23528E+02
  0.1950E+03  0.5000E+00    98   -0.19062E-03    0.78540E+00    0.17252E-04   -0.12201E-04    0.32886E-08    0.20000E+01    0.00000E+00    0.00000E+00   -0.00000E+00    0.00000E+00    0.00000E+00   -0.23390E+02
  0.1970E+03  0.5000E+00    99   -0.15967E-03    0.78540E+00    0.17246E-04   -0.12197E-04    0.27537E-08    0.20000E+01    0.00000E+00    0.00000E+00   -0.00000E+00    0.00000E+00    0.00000E+00   -0.23252E+02
  0.1990E+03  0.5000E+00   100   -0.13183E-03    0.78540E+00    0.17241E-04   -0.12193E-04    0.22729E-08    0.20000E+01    0.00000E+00    0.00000E+00   -0.00000E+00    0.00000E+00    0.00000E+00   -0.23114E+02
  0.2010E+03  0.5000E+00   101   -0.10663E-03    0.78540E+00    0.17237E-04   -0.12190E-04    0.18381E-08    0.20000E+01    0.00000E+00    0.00000E+00   -0.00000E+00    0.00000E+00    0.00000E+00   -0.22977E+02
  0.2030E+03  0.5000E+00   102   -0.83707E-04    0.78540E+00    0.17234E-04   -0.12187E-04    0.14426E-08    0.20000E+01    0.00000E+00    0.00000E+00   -0.00000E+00    0.00000E+00    0.00000E+00   -0.22839E+02
  0.2050E+03  0.5000E+00   103   -0.62732E-04    0.78540E+00    0.17231E-04   -0.12185E-04    0.10809E-08    0.20000E+01    0.00000E+00    0.00000E+00   -0.00000E+00    0.00000E+00    0.00000E+00   -0.22701E+02
  0.2070E+03  0.5000E+00   104   -0.43426E-04    0.78540E+00    0.17229E-04   -0.12184E-04    0.74821E-09    0.20000E+01    0.00000E+00    0.00000E+00   -0.00000E+00    0.00000E+00    0.00000E+00   -0.22563E+02
  0.2090E+03  0.5000E+00   105   -0.25586E-04    0.78540E+00    0.17228E-04   -0.12182E-04    0.44081E-09    0.20000E+01    0.00000E+00    0.00000E+00   -0.00000E+00    0.00000E+00    0.00000E+00   -0.22425E+02
  0.2110E+03  0.5000E+00   106   -0.90526E-05    0.78540E+00    0.17228E-04   -0.12182E-04    0.15596E-09    0.20000E+01    0.00000E+00    0.00000E+00   -0.00000E+00    0.00000E+00    0.00000E+00   -0.22287E+02
  0.2130E+03  0.5000E+00   107    0.62979E-05    0.78540E+00    0.17228E-04   -0.12182E-04   -0.10850E-09    0.20000E+01    0.00000E+00   -0.00000E+00   -0.00000E+00   -0.00000E+00    0.00000E+00   -0.22149E+02
  0.2150E+03  0.5000E+00   108    0.20516E-04    0.78540E+00    0.17228E-04   -0.12182E-04   -0.35345E-09    0.20000E+01    0.00000E+00   -0.00000E+00   -0.00000E+00   -0.00000E+00    0.00000E+00   -0.22012E+02
  0.2170E+03  0.5000E+00   109    0.33619E-04    0.78540E+00    0.17229E-04   -0.12182E-04   -0.57921E-09    0.20000E+01    0.00000E+00   -0.00000E+00   -0.00000E+00   -0.00000E+00    0.00000E+00   -0.21874E+02
  0.2190E+03  0.5000E+00   110    0.45591E-04    0.78540E+00    0.17230E-04   -0.12183E-04   -0.78555E-09    0.20000E+01    0.00000E+00   -0.00000E+00   -0.00000E+00   -0.00000E+00    0.00000E+00   -0.21736E+02
  0.2210E+03  0.5000E+00   111    0.56334E-04    0.78540E+00    0.17232E-04   -0.12184E-04   -0.97076E-09    0.20000E+01    0.00000E+00   -0.00000E+00   -0.00000E+00   -0.00000E+00    0.00000E+00   -0.21598E+02
  0.2230E+03  0.5000E+00   112    0.65758E-04    0.78540E+00    0.17234E-04   -0.12186E-04   -0.11333E-08    0.20000E+01    0.00000E+00   -0.00000E+00   -0.00000E+00   -0.00000E+00    0.00000E+00   -0.21460E+02
  0.2250E+03  0.5000E+00   113    0.73719E-04    0.78540E+00    0.17237E-04   -0.12187E-04   -0.12707E-08    0.20000E+01    0.00000E+00   -0.00000E+00   -0.00000E+00   -0.00000E+00    0.00000E+00   -0.21322E+02
  0.2270E+03  0.5000E+00   114    0.80030E-04    0.78540E+00    0.17239E-04   -0.12189E-04   -0.13797E-08    0.20000E+01    0.00000E+00   -0.00000E+00   -0.00000E+00   -0.00000E+00    0.00000E+00   -0.21184E+02
  0.2290E+03  0.5000E+00   115    0.84536E-04    0.78540E+00    0.17242E-04   -0.12191E-04   -0.14576E-08    0.20000E+01    0.00000E+00   -0.00000E+00   -0.00000E+00   -0.00000E+00    0.00000E+00   -0.21047E+02
  0.2310E+03  0.5000E+00   116    0.87029E-04    0.78540E+00    0.17245E-04   -0.12193E-04   -0.15008E-08    0.20000E+01    0.00000E+00   -0.00000E+00   -0.00000E+00   -0.00000E+00    0.00000E+00   -0.20909E+02
  0.2330E+03  0.5000E+00   117    0.87354E-04    0.78540E+00    0.17248E-04   -0.12195E-04   -0.15067E-08    0.20000E+01    0.00000E+00   -0.00000E+00   -0.00000E+00   -0.00000E+00    0.00000E+00   -0.20771E+02
  0.2350E+03  0.5000E+00   118    0.85406E-04    0.78540E+00    0.17251E-04   -0.12197E-04   -0.14734E-08    0.20000E+01    0.00000E+00   -0.00000E+00   -0.00000E+00   -0.00000E+00    0.00000E+00   -0.20633E+02
  0.2370E+03  0.5000E+00   119    0.81097E-04    0.78540E+00    0.17254E-04   -0.12199E-04   -0.13992E-08    0.20000E+01    0.00000E+00   -0.00000E+00   -0.00000E+00   -0.00000E+00    0.00000E+00   -0.20495E+02
  0.2390E+03  0.5000E+00   120    0.74454E-04    0.78540E+00    0.17257E-04   -0.12201E-04   -0.12848E-08    0.20000E+01    0.00000E+00   -0.00000E+00   -0.00000E+00   -0.00000E+00    0.00000E+00   -0.20357E+02
  0.2410E+03  0.5000E+00   121    0.65590E-04    0.78540E+00    0.17259E-04   -0.12203E-04   -0.11320E-08    0.20000E+01    0.00000E+00   -0.00000E+00   -0.00000E+00   -0.00000E+00    0.00000E+00   -0.20218E+02
  0.2430E+03  0.5000E+00   122    0.54702E-04    0.78540E+00    0.17261E-04   -0.12205E-04   -0.94422E-09    0.20000E+01    0.00000E+00   -0.00000E+00   -0.00000E+00   -0.00000E+00    0.00000E+00   -0.20080E+02
  0.2450E+03  0.5000E+00   123    0.42079E-04    0.78540E+00    0.17263E-04   -0.12206E-04   -0.72640E-09    0.20000E+01    0.00000E+00   -0.00000E+00   -0.00000E+00   -0.00000E+00    0.00000E+00   -0.19942E+02
  0.2470E+03  0.5000E+00   124    0.28131E-04    0.78540E+00    0.17264E-04   -0.12207E-04   -0.48567E-09    0.20000E+01    0.00000E+00   -0.00000E+00   -0.00000E+00   -0.00000E+00    0.00000E+00   -0.19804E+02
  0.2490E+03  0.5000E+00   125    0.13346E-04    0.78540E+00    0.17265E-04   -0.12208E-04   -0.23042E-09    0.20000E+01    0.00000E+00   -0.00000E+00   -0.00000E+00   -0.00000E+00    0.00000E+00   -0.19666E+02
  0.2510E+03  0.5000E+00   126   -0.17719E-05    0.78540E+00    0.17265E-04   -0.12208E-04    0.30592E-10    0.20000E+01    0.00000E+00    0.00000E+00   -0.00000E+00    0.00000E+00    0.00000E+00   -0.19528E+02
  0.2530E+03  0.5000E+00   127   -0.16651E-04    0.78540E+00    0.17265E-04   -0.12208E-04    0.28748E-09    0.20000E+01    0.00000E+00    0.00000E+00   -0.00000E+00    0.00000E+00    0.00000E+00   -0.19390E+02
  0.2550E+03  0.5000E+00   128   -0.30755E-04    0.78540E+00    0.17264E-04   -0.12208E-04    0.53095E-09    0.20000E+01    0.00000E+00    0.00000E+00   -0.00000E+00    0.00000E+00    0.00000E+00   -0.19252E+02
  0.2570E+03  0.5000E+00   129   -0.43581E-04    0.78540E+00    0.17263E-04   -0.12207E-04    0.75232E-09    0.20000E+01    0.00000E+00    0.00000E+00   -0.00000E+00    0.00000E+00    0.00000E+00   -0.19114E+02
  0.2590E+03  0.5000E+00   130   -0.54685E-04    0.78540E+00    0.17261E-04   -0.12206E-04    0.94391E-09    0.20000E+01    0.00000E+00    0.00000E+00   -0.00000E+00    0.00000E+00    0.00000E+00   -0.18976E+02
  0.2610E+03  0.5000E+00   131   -0.63709E-04    0.78540E+00    0.17259E-04   -0.12205E-04    0.10995E-08    0.20000E+01    0.00000E+00    0.00000E+00   -0.00000E+00    0.00000E+00    0.00000E+00   -0.18837E+02
  0.2630E+03  0.5000E+00   132   -0.70388E-04    0.78540E+00    0.17257E-04   -0.12203E-04    0.12147E-08    0.20000E+01    0.00000E+00    0.00000E+00   -0.00000E+00    0.00000E+00    0.00000E+00   -0.18699E+02
  0.2650E+03  0.5000E+00   133   -0.74579E-04    0.78540E+00    0.17254E-04   -0.12201E-04    0.12868E-08    0.20000E+01    0.00000E+00    0.00000E+00   -0.00000E+00    0.00000E+00    0.00000E+00   -0.18561E+02
  0.2670E+03  0.5000E+00   134   -0.76215E-04    0.78540E+00    0.17251E-04   -0.12199E-04    0.13148E-08    0.20000E+01    0.00000E+00    0.00000E+00   -0.00000E+00    0.00000E+00    0.00000E+00   -0.18423E+02
  0.2690E+03  0.5000E+00   135   -0.75316E-04    0.78540E+00    0.17249E-04   -0.12198E-04    0.12991E-08    0.20000E+01    0.00000E+00    0.00000E+00   -0.00000E+00    0.00000E+00    0.00000E+00   -0.18285E+02
  0.2710E+03  0.5000E+00   136   -0.71972E-04    0.78540E+00    0.17246E-04   -0.12196E-04    0.12413E-08    0.20000E+01    0.00000E+00    0.00000E+00   -0.00000E+00    0.00000E+00    0.00000E+00   -0.18147E+02
  0.2730E+03  0.5000E+00   137   -0.66324E-04    0.78540E+00    0.17244E-04   -0.12194E-04    0.11437E-08    0.20000E+01    0.00000E+00    0.00000E+00   -0.00000E+00    0.00000E+00    0.00000E+00   -0.18009E+02
  0.2750E+03  0.5000E+00   138   -0.58513E-04    0.78540E+00    0.17242E-04   -0.12192E-04    0.10089E-08    0.20000E+01    0.00000E+00    0.00000E+00   -0.00000E+00    0.00000E+00    0.00000E+00   -0.17871E+02
  0.2770E+03  0.5000E+00   139   -0.48714E-04    0.78540E+00    0.17240E-04   -0.12191E-04    0.83982E-09    0.20000E+01    0.00000E+00    0.00000E+00   -0.00000E+00    0.00000E+00    0.00000E+00   -0.17734E+02
  0.2790E+03  0.5000E+00   140   -0.37093E-04    0.78540E+00    0.17238E-04   -0.12190E-04    0.63941E-09    0.20000E+01    0.00000E+00    0.00000E+00   -0.00000E+00    0.00000E+00    0.00000E+00   -0.17596E+02
  0.2810E+03  0.5000E+00   141   -0.23754E-04    0.78540E+00    0.17237E-04   -0.12189E-04    0.40945E-09    0.20000E+01    0.00000E+00    0.00000E+00   -0.00000E+00    0.00000E+00    0.00000E+00   -0.17458E+02