 variables="time(d)","peak temp(C)","minimum temp(C)"
 zone i=9999, T="replace with real # on last line"
number of print times:      0 (replace 9999 above)
