variables="x","dztot(m)","depth_Ts(m)","bz(m)","bzf(W/m2)","bzq(m/s)"
zone i=   201,T=" t=0 days, znode=    26"
   0.000000E+00   0.000000E+00   0.186736-311   0.000000E+00   0.000000E+00   0.000000E+00
   0.200000E+01   0.000000E+00   0.215897-313   0.000000E+00   0.000000E+00   0.000000E+00
   0.400000E+01   0.000000E+00   0.143328-319   0.000000E+00   0.000000E+00   0.000000E+00
   0.600000E+01   0.000000E+00   0.000000E+00   0.000000E+00   0.000000E+00   0.000000E+00
   0.800000E+01   0.000000E+00   0.000000E+00   0.000000E+00   0.000000E+00   0.000000E+00
   0.100000E+02   0.000000E+00   0.302245-313   0.000000E+00   0.000000E+00   0.000000E+00
   0.120000E+02   0.000000E+00   0.000000E+00   0.000000E+00   0.000000E+00   0.000000E+00
   0.140000E+02   0.000000E+00   0.103754-321   0.000000E+00   0.000000E+00   0.000000E+00
   0.160000E+02   0.000000E+00   0.215897-313   0.000000E+00   0.000000E+00   0.000000E+00
   0.180000E+02   0.000000E+00   0.000000E+00   0.000000E+00   0.000000E+00   0.000000E+00
   0.200000E+02   0.000000E+00   0.302347-313   0.000000E+00   0.000000E+00   0.000000E+00
   0.220000E+02   0.000000E+00   0.138338-321   0.000000E+00   0.000000E+00   0.000000E+00
   0.240000E+02   0.000000E+00   0.000000E+00   0.000000E+00   0.000000E+00   0.000000E+00
   0.260000E+02   0.000000E+00   0.000000E+00   0.000000E+00   0.000000E+00   0.000000E+00
   0.280000E+02   0.000000E+00   0.000000E+00   0.000000E+00   0.000000E+00   0.000000E+00
   0.300000E+02   0.000000E+00   0.000000E+00   0.000000E+00   0.000000E+00   0.000000E+00
   0.320000E+02   0.000000E+00   0.000000E+00   0.000000E+00   0.000000E+00   0.000000E+00
   0.340000E+02   0.000000E+00   0.000000E+00   0.000000E+00   0.000000E+00   0.000000E+00
   0.360000E+02   0.000000E+00   0.000000E+00   0.000000E+00   0.000000E+00   0.000000E+00
   0.380000E+02   0.000000E+00   0.000000E+00   0.000000E+00   0.000000E+00   0.000000E+00
   0.400000E+02   0.000000E+00   0.000000E+00   0.000000E+00   0.000000E+00   0.000000E+00
   0.420000E+02   0.000000E+00   0.000000E+00   0.000000E+00   0.000000E+00   0.000000E+00
   0.440000E+02   0.000000E+00   0.000000E+00   0.000000E+00   0.000000E+00   0.000000E+00
   0.460000E+02   0.000000E+00   0.000000E+00   0.000000E+00   0.000000E+00   0.000000E+00
   0.480000E+02   0.000000E+00   0.000000E+00   0.000000E+00   0.000000E+00   0.000000E+00
   0.500000E+02   0.000000E+00   0.000000E+00   0.000000E+00   0.000000E+00   0.000000E+00
   0.520000E+02   0.000000E+00   0.000000E+00   0.000000E+00   0.000000E+00   0.000000E+00
   0.540000E+02   0.000000E+00   0.000000E+00   0.000000E+00   0.000000E+00   0.000000E+00
   0.560000E+02   0.000000E+00   0.000000E+00   0.000000E+00   0.000000E+00   0.000000E+00
   0.580000E+02   0.000000E+00   0.000000E+00   0.000000E+00   0.000000E+00   0.000000E+00
   0.600000E+02   0.000000E+00   0.000000E+00   0.000000E+00   0.000000E+00   0.000000E+00
   0.620000E+02   0.000000E+00   0.000000E+00   0.000000E+00   0.000000E+00   0.000000E+00
   0.640000E+02   0.000000E+00   0.000000E+00   0.000000E+00   0.000000E+00   0.000000E+00
   0.660000E+02   0.000000E+00   0.000000E+00   0.000000E+00   0.000000E+00   0.000000E+00
   0.680000E+02   0.000000E+00   0.000000E+00   0.000000E+00   0.000000E+00   0.000000E+00
   0.700000E+02   0.000000E+00   0.302347-313   0.000000E+00   0.000000E+00   0.000000E+00
   0.720000E+02   0.000000E+00   0.212200-313   0.000000E+00   0.000000E+00   0.000000E+00
   0.740000E+02   0.000000E+00   0.000000E+00   0.000000E+00   0.000000E+00   0.000000E+00
   0.760000E+02   0.000000E+00   0.000000E+00   0.000000E+00   0.000000E+00   0.000000E+00
   0.780000E+02   0.000000E+00   0.000000E+00   0.000000E+00   0.000000E+00   0.000000E+00
   0.800000E+02   0.000000E+00   0.000000E+00   0.000000E+00   0.000000E+00   0.000000E+00
   0.820000E+02   0.000000E+00   0.101283-319   0.000000E+00   0.000000E+00   0.000000E+00
   0.840000E+02   0.000000E+00   0.000000E+00   0.000000E+00   0.000000E+00   0.000000E+00
   0.860000E+02   0.000000E+00   0.000000E+00   0.000000E+00   0.000000E+00   0.000000E+00
   0.880000E+02   0.000000E+00   0.000000E+00   0.000000E+00   0.000000E+00   0.000000E+00
   0.900000E+02   0.000000E+00   0.000000E+00   0.000000E+00   0.000000E+00   0.000000E+00
   0.920000E+02   0.000000E+00   0.000000E+00   0.000000E+00   0.000000E+00   0.000000E+00
   0.940000E+02   0.000000E+00   0.000000E+00   0.000000E+00   0.000000E+00   0.000000E+00
   0.960000E+02   0.000000E+00   0.302987-313   0.000000E+00   0.000000E+00   0.000000E+00
   0.980000E+02   0.000000E+00   0.000000E+00   0.000000E+00   0.000000E+00   0.000000E+00
   0.100000E+03   0.000000E+00   0.000000E+00   0.000000E+00   0.000000E+00   0.000000E+00
   0.102000E+03   0.000000E+00   0.000000E+00   0.000000E+00   0.000000E+00   0.000000E+00
   0.104000E+03   0.000000E+00   0.000000E+00   0.000000E+00   0.000000E+00   0.000000E+00
   0.106000E+03   0.000000E+00   0.000000E+00   0.000000E+00   0.000000E+00   0.000000E+00
   0.108000E+03   0.000000E+00   0.000000E+00   0.000000E+00   0.000000E+00   0.000000E+00
   0.110000E+03   0.000000E+00   0.000000E+00   0.000000E+00   0.000000E+00   0.000000E+00
   0.112000E+03   0.000000E+00   0.000000E+00   0.000000E+00   0.000000E+00   0.000000E+00
   0.114000E+03   0.000000E+00   0.000000E+00   0.000000E+00   0.000000E+00   0.000000E+00
   0.116000E+03   0.000000E+00   0.000000E+00   0.000000E+00   0.000000E+00   0.000000E+00
   0.118000E+03   0.000000E+00   0.000000E+00   0.000000E+00   0.000000E+00   0.000000E+00
   0.120000E+03   0.000000E+00   0.491805-313   0.000000E+00   0.000000E+00   0.000000E+00
   0.122000E+03   0.000000E+00   0.302246-313   0.000000E+00   0.000000E+00   0.000000E+00
   0.124000E+03   0.000000E+00   0.302246-313   0.000000E+00   0.000000E+00   0.000000E+00
   0.126000E+03   0.000000E+00  -0.870602+301   0.000000E+00   0.000000E+00   0.000000E+00
   0.128000E+03   0.000000E+00   0.302246-313   0.000000E+00   0.000000E+00   0.000000E+00
   0.130000E+03   0.000000E+00   0.000000E+00   0.000000E+00   0.000000E+00   0.000000E+00
   0.132000E+03   0.000000E+00   0.302246-313   0.000000E+00   0.000000E+00   0.000000E+00
   0.134000E+03   0.000000E+00   0.504581E-22   0.000000E+00   0.000000E+00   0.000000E+00
   0.136000E+03   0.000000E+00   0.491805-313   0.000000E+00   0.000000E+00   0.000000E+00
   0.138000E+03   0.000000E+00   0.128457-321   0.000000E+00   0.000000E+00   0.000000E+00
   0.140000E+03   0.000000E+00   0.302246-313   0.000000E+00   0.000000E+00   0.000000E+00
   0.142000E+03   0.000000E+00   0.197689-181   0.000000E+00   0.000000E+00   0.000000E+00
   0.144000E+03   0.000000E+00   0.298757-313   0.000000E+00   0.000000E+00   0.000000E+00
   0.146000E+03   0.000000E+00   0.491805-313   0.000000E+00   0.000000E+00   0.000000E+00
   0.148000E+03   0.000000E+00   0.302246-313   0.000000E+00   0.000000E+00   0.000000E+00
   0.150000E+03   0.000000E+00   0.705707+258   0.000000E+00   0.000000E+00   0.000000E+00
   0.152000E+03   0.000000E+00   0.491805-313   0.000000E+00   0.000000E+00   0.000000E+00
   0.154000E+03   0.000000E+00   0.163042-321   0.000000E+00   0.000000E+00   0.000000E+00
   0.156000E+03   0.000000E+00   0.298757-313   0.000000E+00   0.000000E+00   0.000000E+00
   0.158000E+03   0.000000E+00   0.491805-313   0.000000E+00   0.000000E+00   0.000000E+00
   0.160000E+03   0.000000E+00   0.302246-313   0.000000E+00   0.000000E+00   0.000000E+00
   0.162000E+03   0.000000E+00   0.000000E+00   0.000000E+00   0.000000E+00   0.000000E+00
   0.164000E+03   0.000000E+00   0.302246-313   0.000000E+00   0.000000E+00   0.000000E+00
   0.166000E+03   0.000000E+00   0.327838-283   0.000000E+00   0.000000E+00   0.000000E+00
   0.168000E+03   0.000000E+00   0.491805-313   0.000000E+00   0.000000E+00   0.000000E+00
   0.170000E+03   0.000000E+00   0.491805-313   0.000000E+00   0.000000E+00   0.000000E+00
   0.172000E+03   0.000000E+00   0.302246-313   0.000000E+00   0.000000E+00   0.000000E+00
   0.174000E+03   0.000000E+00   0.302246-313   0.000000E+00   0.000000E+00   0.000000E+00
   0.176000E+03   0.000000E+00   0.302246-313   0.000000E+00   0.000000E+00   0.000000E+00
   0.178000E+03   0.000000E+00  -0.138914E-18   0.000000E+00   0.000000E+00   0.000000E+00
   0.180000E+03   0.000000E+00   0.302246-313   0.000000E+00   0.000000E+00   0.000000E+00
   0.182000E+03   0.000000E+00   0.302246-313   0.000000E+00   0.000000E+00   0.000000E+00
   0.184000E+03   0.000000E+00   0.302246-313   0.000000E+00   0.000000E+00   0.000000E+00
   0.186000E+03   0.000000E+00   0.302246-313   0.000000E+00   0.000000E+00   0.000000E+00
   0.188000E+03   0.000000E+00   0.302246-313   0.000000E+00   0.000000E+00   0.000000E+00
   0.190000E+03   0.000000E+00  -0.972655E+79   0.000000E+00   0.000000E+00   0.000000E+00
   0.192000E+03   0.000000E+00   0.000000E+00   0.000000E+00   0.000000E+00   0.000000E+00
   0.194000E+03   0.000000E+00   0.000000E+00   0.000000E+00   0.000000E+00   0.000000E+00
   0.196000E+03   0.000000E+00   0.000000E+00   0.000000E+00   0.000000E+00   0.000000E+00
   0.198000E+03   0.000000E+00   0.000000E+00   0.000000E+00   0.000000E+00   0.000000E+00
   0.200000E+03   0.000000E+00   0.302246-313   0.000000E+00   0.000000E+00   0.000000E+00
   0.202000E+03   0.000000E+00   0.302246-313   0.000000E+00   0.000000E+00   0.000000E+00
   0.204000E+03   0.000000E+00   0.302246-313   0.000000E+00   0.000000E+00   0.000000E+00
   0.206000E+03   0.000000E+00   0.302246-313   0.000000E+00   0.000000E+00   0.000000E+00
   0.208000E+03   0.000000E+00   0.302246-313   0.000000E+00   0.000000E+00   0.000000E+00
   0.210000E+03   0.000000E+00   0.119143-148   0.000000E+00   0.000000E+00   0.000000E+00
   0.212000E+03   0.000000E+00   0.302247-313   0.000000E+00   0.000000E+00   0.000000E+00
   0.214000E+03   0.000000E+00   0.212200-313   0.000000E+00   0.000000E+00   0.000000E+00
   0.216000E+03   0.000000E+00   0.491805-313   0.000000E+00   0.000000E+00   0.000000E+00
   0.218000E+03   0.000000E+00   0.691692-322   0.000000E+00   0.000000E+00   0.000000E+00
   0.220000E+03   0.000000E+00   0.491806-313   0.000000E+00   0.000000E+00   0.000000E+00
   0.222000E+03   0.000000E+00   0.298757-313   0.000000E+00   0.000000E+00   0.000000E+00
   0.224000E+03   0.000000E+00   0.302246-313   0.000000E+00   0.000000E+00   0.000000E+00
   0.226000E+03   0.000000E+00   0.346945E-17   0.000000E+00   0.000000E+00   0.000000E+00
   0.228000E+03   0.000000E+00   0.302247-313   0.000000E+00   0.000000E+00   0.000000E+00
   0.230000E+03   0.000000E+00   0.000000E+00   0.000000E+00   0.000000E+00   0.000000E+00
   0.232000E+03   0.000000E+00   0.491805-313   0.000000E+00   0.000000E+00   0.000000E+00
   0.234000E+03   0.000000E+00   0.839912-322   0.000000E+00   0.000000E+00   0.000000E+00
   0.236000E+03   0.000000E+00   0.491805-313   0.000000E+00   0.000000E+00   0.000000E+00
   0.238000E+03   0.000000E+00   0.298757-313   0.000000E+00   0.000000E+00   0.000000E+00
   0.240000E+03   0.000000E+00   0.302246-313   0.000000E+00   0.000000E+00   0.000000E+00
   0.242000E+03   0.000000E+00   0.167881+238   0.000000E+00   0.000000E+00   0.000000E+00
   0.244000E+03   0.000000E+00   0.302247-313   0.000000E+00   0.000000E+00   0.000000E+00
   0.246000E+03   0.000000E+00   0.000000E+00   0.000000E+00   0.000000E+00   0.000000E+00
   0.248000E+03   0.000000E+00   0.491807-313   0.000000E+00   0.000000E+00   0.000000E+00
   0.250000E+03   0.000000E+00   0.395253-322   0.000000E+00   0.000000E+00   0.000000E+00
   0.252000E+03   0.000000E+00   0.491805-313   0.000000E+00   0.000000E+00   0.000000E+00
   0.254000E+03   0.000000E+00   0.298757-313   0.000000E+00   0.000000E+00   0.000000E+00
   0.256000E+03   0.000000E+00   0.302246-313   0.000000E+00   0.000000E+00   0.000000E+00
   0.258000E+03   0.000000E+00  -0.118358-156   0.000000E+00   0.000000E+00   0.000000E+00
   0.260000E+03   0.000000E+00   0.302247-313   0.000000E+00   0.000000E+00   0.000000E+00
   0.262000E+03   0.000000E+00   0.000000E+00   0.000000E+00   0.000000E+00   0.000000E+00
   0.264000E+03   0.000000E+00   0.491805-313   0.000000E+00   0.000000E+00   0.000000E+00
   0.266000E+03   0.000000E+00   0.741098-322   0.000000E+00   0.000000E+00   0.000000E+00
   0.268000E+03   0.000000E+00   0.491805-313   0.000000E+00   0.000000E+00   0.000000E+00
   0.270000E+03   0.000000E+00   0.298757-313   0.000000E+00   0.000000E+00   0.000000E+00
   0.272000E+03   0.000000E+00   0.302246-313   0.000000E+00   0.000000E+00   0.000000E+00
   0.274000E+03   0.000000E+00  -0.265367-200   0.000000E+00   0.000000E+00   0.000000E+00
   0.276000E+03   0.000000E+00   0.302247-313   0.000000E+00   0.000000E+00   0.000000E+00
   0.278000E+03   0.000000E+00   0.000000E+00   0.000000E+00   0.000000E+00   0.000000E+00
   0.280000E+03   0.000000E+00   0.491805-313   0.000000E+00   0.000000E+00   0.000000E+00
   0.282000E+03   0.000000E+00   0.296439-322   0.000000E+00   0.000000E+00   0.000000E+00
   0.284000E+03   0.000000E+00   0.491807-313   0.000000E+00   0.000000E+00   0.000000E+00
   0.286000E+03   0.000000E+00   0.298757-313   0.000000E+00   0.000000E+00   0.000000E+00
   0.288000E+03   0.000000E+00   0.302246-313   0.000000E+00   0.000000E+00   0.000000E+00
   0.290000E+03   0.000000E+00   0.362301+171   0.000000E+00   0.000000E+00   0.000000E+00
   0.292000E+03   0.000000E+00  -0.792738E-09   0.000000E+00   0.000000E+00   0.000000E+00
   0.294000E+03   0.000000E+00   0.000000E+00   0.000000E+00   0.000000E+00   0.000000E+00
   0.296000E+03   0.000000E+00   0.000000E+00   0.000000E+00   0.000000E+00   0.000000E+00
   0.298000E+03   0.000000E+00   0.000000E+00   0.000000E+00   0.000000E+00   0.000000E+00
   0.300000E+03   0.000000E+00   0.298758-313   0.000000E+00   0.000000E+00   0.000000E+00
   0.302000E+03   0.000000E+00   0.000000E+00   0.000000E+00   0.000000E+00   0.000000E+00
   0.304000E+03   0.000000E+00   0.345846-322   0.000000E+00   0.000000E+00   0.000000E+00
   0.306000E+03   0.000000E+00   0.298757-313   0.000000E+00   0.000000E+00   0.000000E+00
   0.308000E+03   0.000000E+00   0.134386-320   0.000000E+00   0.000000E+00   0.000000E+00
   0.310000E+03   0.000000E+00   0.302246-313   0.000000E+00   0.000000E+00   0.000000E+00
   0.312000E+03   0.000000E+00   0.298757-313   0.000000E+00   0.000000E+00   0.000000E+00
   0.314000E+03   0.000000E+00   0.491805-313   0.000000E+00   0.000000E+00   0.000000E+00
   0.316000E+03   0.000000E+00   0.302246-313   0.000000E+00   0.000000E+00   0.000000E+00
   0.318000E+03   0.000000E+00  -0.206415+107   0.000000E+00   0.000000E+00   0.000000E+00
   0.320000E+03   0.000000E+00   0.302246-313   0.000000E+00   0.000000E+00   0.000000E+00
   0.322000E+03   0.000000E+00  -0.298129-268   0.000000E+00   0.000000E+00   0.000000E+00
   0.324000E+03   0.000000E+00   0.302247-313   0.000000E+00   0.000000E+00   0.000000E+00
   0.326000E+03   0.000000E+00   0.000000E+00   0.000000E+00   0.000000E+00   0.000000E+00
   0.328000E+03   0.000000E+00   0.491805-313   0.000000E+00   0.000000E+00   0.000000E+00
   0.330000E+03   0.000000E+00   0.494066-322   0.000000E+00   0.000000E+00   0.000000E+00
   0.332000E+03   0.000000E+00   0.491807-313   0.000000E+00   0.000000E+00   0.000000E+00
   0.334000E+03   0.000000E+00   0.435698-313   0.000000E+00   0.000000E+00   0.000000E+00
   0.336000E+03   0.000000E+00   0.547077-314   0.000000E+00   0.000000E+00   0.000000E+00
   0.338000E+03   0.000000E+00   0.359498-313   0.000000E+00   0.000000E+00   0.000000E+00
   0.340000E+03   0.000000E+00   0.436777-313   0.000000E+00   0.000000E+00   0.000000E+00
   0.342000E+03   0.000000E+00   0.302246-313   0.000000E+00   0.000000E+00   0.000000E+00
   0.344000E+03   0.000000E+00   0.302246-313   0.000000E+00   0.000000E+00   0.000000E+00
   0.346000E+03   0.000000E+00  -0.376392-143   0.000000E+00   0.000000E+00   0.000000E+00
   0.348000E+03   0.000000E+00   0.000000E+00   0.000000E+00   0.000000E+00   0.000000E+00
   0.350000E+03   0.000000E+00   0.302246-313   0.000000E+00   0.000000E+00   0.000000E+00
   0.352000E+03   0.000000E+00   0.491807-313   0.000000E+00   0.000000E+00   0.000000E+00
   0.354000E+03   0.000000E+00   0.298757-313   0.000000E+00   0.000000E+00   0.000000E+00
   0.356000E+03   0.000000E+00   0.302246-313   0.000000E+00   0.000000E+00   0.000000E+00
   0.358000E+03   0.000000E+00   0.549889-148   0.000000E+00   0.000000E+00   0.000000E+00
   0.360000E+03   0.000000E+00   0.302246-313   0.000000E+00   0.000000E+00   0.000000E+00
   0.362000E+03   0.000000E+00   0.000000E+00   0.000000E+00   0.000000E+00   0.000000E+00
   0.364000E+03   0.000000E+00   0.491807-313   0.000000E+00   0.000000E+00   0.000000E+00
   0.366000E+03   0.000000E+00   0.298757-313   0.000000E+00   0.000000E+00   0.000000E+00
   0.368000E+03   0.000000E+00   0.302247-313   0.000000E+00   0.000000E+00   0.000000E+00
   0.370000E+03   0.000000E+00   0.457490+256   0.000000E+00   0.000000E+00   0.000000E+00
   0.372000E+03   0.000000E+00   0.491855-313   0.000000E+00   0.000000E+00   0.000000E+00
   0.374000E+03   0.000000E+00   0.302246-313   0.000000E+00   0.000000E+00   0.000000E+00
   0.376000E+03   0.000000E+00   0.505923-320   0.000000E+00   0.000000E+00   0.000000E+00
   0.378000E+03   0.000000E+00   0.000000E+00   0.000000E+00   0.000000E+00   0.000000E+00
   0.380000E+03   0.000000E+00   0.000000E+00   0.000000E+00   0.000000E+00   0.000000E+00
   0.382000E+03   0.000000E+00   0.000000E+00   0.000000E+00   0.000000E+00   0.000000E+00
   0.384000E+03   0.000000E+00   0.491805-313   0.000000E+00   0.000000E+00   0.000000E+00
   0.386000E+03   0.000000E+00   0.491805-313   0.000000E+00   0.000000E+00   0.000000E+00
   0.388000E+03   0.000000E+00   0.491805-313   0.000000E+00   0.000000E+00   0.000000E+00
   0.390000E+03   0.000000E+00   0.491805-313   0.000000E+00   0.000000E+00   0.000000E+00
   0.392000E+03   0.000000E+00   0.491805-313   0.000000E+00   0.000000E+00   0.000000E+00
   0.394000E+03   0.000000E+00   0.491805-313   0.000000E+00   0.000000E+00   0.000000E+00
   0.396000E+03   0.000000E+00   0.491805-313   0.000000E+00   0.000000E+00   0.000000E+00
   0.398000E+03   0.000000E+00   0.491805-313   0.000000E+00   0.000000E+00   0.000000E+00
   0.400000E+03   0.000000E+00   0.491805-313   0.000000E+00   0.000000E+00   0.000000E+00
zone i=   201,T="t=       1.000, days, kz=   26"
   0.000000E+00   0.000000E+00   0.490000E+02   0.100000E-02   0.000000E+00   0.000000E+00
   0.200000E+01   0.000000E+00   0.490000E+02   0.100000E-02   0.000000E+00   0.000000E+00
   0.400000E+01   0.000000E+00   0.490000E+02   0.100000E-02   0.000000E+00   0.000000E+00
   0.600000E+01   0.000000E+00   0.490000E+02   0.100000E-02   0.000000E+00   0.000000E+00
   0.800000E+01   0.000000E+00   0.490000E+02   0.100000E-02   0.000000E+00   0.000000E+00
   0.100000E+02   0.000000E+00   0.490000E+02   0.100000E-02   0.000000E+00   0.000000E+00
   0.120000E+02   0.000000E+00   0.490000E+02   0.100000E-02   0.000000E+00   0.000000E+00
   0.140000E+02   0.000000E+00   0.490000E+02   0.100000E-02   0.000000E+00   0.000000E+00
   0.160000E+02   0.000000E+00   0.490000E+02   0.100000E-02   0.000000E+00   0.000000E+00
   0.180000E+02   0.000000E+00   0.490000E+02   0.100000E-02   0.000000E+00   0.000000E+00
   0.200000E+02   0.000000E+00   0.490000E+02   0.100000E-02   0.000000E+00   0.000000E+00
   0.220000E+02   0.000000E+00   0.490000E+02   0.100000E-02   0.000000E+00   0.000000E+00
   0.240000E+02   0.000000E+00   0.490000E+02   0.100000E-02   0.000000E+00   0.000000E+00
   0.260000E+02   0.000000E+00   0.490000E+02   0.100000E-02   0.000000E+00   0.000000E+00
   0.280000E+02   0.000000E+00   0.490000E+02   0.100000E-02   0.000000E+00   0.000000E+00
   0.300000E+02   0.000000E+00   0.490000E+02   0.100000E-02   0.000000E+00   0.000000E+00
   0.320000E+02   0.000000E+00   0.490000E+02   0.100000E-02   0.000000E+00   0.000000E+00
   0.340000E+02   0.000000E+00   0.490000E+02   0.100000E-02   0.000000E+00   0.000000E+00
   0.360000E+02   0.000000E+00   0.490000E+02   0.100000E-02   0.000000E+00   0.000000E+00
   0.380000E+02   0.000000E+00   0.490000E+02   0.100000E-02   0.000000E+00   0.000000E+00
   0.400000E+02   0.000000E+00   0.490000E+02   0.100000E-02   0.000000E+00   0.000000E+00
   0.420000E+02   0.000000E+00   0.490000E+02   0.100000E-02   0.000000E+00   0.000000E+00
   0.440000E+02   0.000000E+00   0.490000E+02   0.100000E-02   0.000000E+00   0.000000E+00
   0.460000E+02   0.000000E+00   0.490000E+02   0.100000E-02   0.000000E+00   0.000000E+00
   0.480000E+02   0.000000E+00   0.490000E+02   0.100000E-02   0.000000E+00   0.000000E+00
   0.500000E+02   0.000000E+00   0.490000E+02   0.100000E-02   0.000000E+00   0.000000E+00
   0.520000E+02   0.000000E+00   0.490000E+02   0.100000E-02   0.000000E+00   0.000000E+00
   0.540000E+02   0.000000E+00   0.490000E+02   0.100000E-02   0.000000E+00   0.000000E+00
   0.560000E+02   0.000000E+00   0.490000E+02   0.100000E-02   0.000000E+00   0.000000E+00
   0.580000E+02   0.000000E+00   0.490000E+02   0.100000E-02   0.000000E+00   0.000000E+00
   0.600000E+02   0.000000E+00   0.490000E+02   0.100000E-02   0.000000E+00   0.000000E+00
   0.620000E+02   0.000000E+00   0.490000E+02   0.100000E-02   0.000000E+00   0.000000E+00
   0.640000E+02   0.000000E+00   0.490000E+02   0.100000E-02   0.000000E+00   0.000000E+00
   0.660000E+02   0.000000E+00   0.490000E+02   0.100000E-02   0.000000E+00   0.000000E+00
   0.680000E+02   0.000000E+00   0.490000E+02   0.100000E-02   0.000000E+00   0.000000E+00
   0.700000E+02   0.000000E+00   0.490000E+02   0.100000E-02   0.000000E+00   0.000000E+00
   0.720000E+02   0.000000E+00   0.490000E+02   0.100000E-02   0.000000E+00   0.000000E+00
   0.740000E+02   0.000000E+00   0.490000E+02   0.100000E-02   0.000000E+00   0.000000E+00
   0.760000E+02   0.000000E+00   0.490000E+02   0.100000E-02   0.000000E+00   0.000000E+00
   0.780000E+02   0.000000E+00   0.490000E+02   0.100000E-02   0.000000E+00   0.000000E+00
   0.800000E+02   0.000000E+00   0.490000E+02   0.100000E-02   0.000000E+00   0.000000E+00
   0.820000E+02   0.000000E+00   0.490000E+02   0.100000E-02   0.000000E+00   0.000000E+00
   0.840000E+02   0.000000E+00   0.490000E+02   0.100000E-02   0.000000E+00   0.000000E+00
   0.860000E+02   0.000000E+00   0.490000E+02   0.100000E-02   0.000000E+00   0.000000E+00
   0.880000E+02   0.000000E+00   0.490000E+02   0.100000E-02   0.000000E+00   0.000000E+00
   0.900000E+02   0.000000E+00   0.490000E+02   0.100000E-02   0.000000E+00   0.000000E+00
   0.920000E+02   0.000000E+00   0.490000E+02   0.100000E-02   0.000000E+00   0.000000E+00
   0.940000E+02   0.000000E+00   0.490000E+02   0.100000E-02   0.000000E+00   0.000000E+00
   0.960000E+02   0.000000E+00   0.490000E+02   0.100000E-02   0.000000E+00   0.000000E+00
   0.980000E+02   0.000000E+00   0.490000E+02   0.100000E-02   0.000000E+00   0.000000E+00
   0.100000E+03   0.000000E+00   0.490000E+02   0.100000E-02   0.000000E+00   0.000000E+00
   0.102000E+03   0.000000E+00   0.490000E+02   0.100000E-02   0.000000E+00   0.000000E+00
   0.104000E+03   0.000000E+00   0.490000E+02   0.100000E-02   0.000000E+00   0.000000E+00
   0.106000E+03   0.000000E+00   0.490000E+02   0.100000E-02   0.000000E+00   0.000000E+00
   0.108000E+03   0.000000E+00   0.490000E+02   0.100000E-02   0.000000E+00   0.000000E+00
   0.110000E+03   0.000000E+00   0.490000E+02   0.100000E-02   0.000000E+00   0.000000E+00
   0.112000E+03   0.000000E+00   0.490000E+02   0.100000E-02   0.000000E+00   0.000000E+00
   0.114000E+03   0.000000E+00   0.490000E+02   0.100000E-02   0.000000E+00   0.000000E+00
   0.116000E+03   0.000000E+00   0.490000E+02   0.100000E-02   0.000000E+00   0.000000E+00
   0.118000E+03   0.000000E+00   0.490000E+02   0.100000E-02   0.000000E+00   0.000000E+00
   0.120000E+03   0.000000E+00   0.490000E+02   0.100000E-02   0.000000E+00   0.000000E+00
   0.122000E+03   0.000000E+00   0.490000E+02   0.100000E-02   0.000000E+00   0.000000E+00
   0.124000E+03   0.000000E+00   0.490000E+02   0.100000E-02   0.000000E+00   0.000000E+00
   0.126000E+03   0.000000E+00   0.490000E+02   0.100000E-02   0.000000E+00   0.000000E+00
   0.128000E+03   0.000000E+00   0.490000E+02   0.100000E-02   0.000000E+00   0.000000E+00
   0.130000E+03   0.000000E+00   0.490000E+02   0.100000E-02   0.000000E+00   0.000000E+00
   0.132000E+03   0.000000E+00   0.490000E+02   0.100000E-02   0.000000E+00   0.000000E+00
   0.134000E+03   0.000000E+00   0.490000E+02   0.100000E-02   0.000000E+00   0.000000E+00
   0.136000E+03   0.000000E+00   0.490000E+02   0.100000E-02   0.000000E+00   0.000000E+00
   0.138000E+03   0.000000E+00   0.490000E+02   0.100000E-02   0.000000E+00   0.000000E+00
   0.140000E+03   0.000000E+00   0.490000E+02   0.100000E-02   0.000000E+00   0.000000E+00
   0.142000E+03   0.000000E+00   0.490000E+02   0.100000E-02   0.000000E+00   0.000000E+00
   0.144000E+03   0.000000E+00   0.490000E+02   0.100000E-02   0.000000E+00   0.000000E+00
   0.146000E+03   0.000000E+00   0.490000E+02   0.100000E-02   0.000000E+00   0.000000E+00
   0.148000E+03   0.000000E+00   0.490000E+02   0.100000E-02   0.000000E+00   0.000000E+00
   0.150000E+03   0.000000E+00   0.490000E+02   0.100000E-02   0.000000E+00   0.000000E+00
   0.152000E+03   0.000000E+00   0.490000E+02   0.100000E-02   0.000000E+00   0.000000E+00
   0.154000E+03   0.000000E+00   0.490000E+02   0.100000E-02   0.000000E+00   0.000000E+00
   0.156000E+03   0.000000E+00   0.490000E+02   0.100000E-02   0.000000E+00   0.000000E+00
   0.158000E+03   0.000000E+00   0.490000E+02   0.100000E-02   0.000000E+00   0.000000E+00
   0.160000E+03   0.000000E+00   0.490000E+02   0.100000E-02   0.000000E+00   0.000000E+00
   0.162000E+03   0.000000E+00   0.490000E+02   0.100000E-02   0.000000E+00   0.000000E+00
   0.164000E+03   0.000000E+00   0.490000E+02   0.100000E-02   0.000000E+00   0.000000E+00
   0.166000E+03   0.000000E+00   0.490000E+02   0.100000E-02   0.000000E+00   0.000000E+00
   0.168000E+03   0.000000E+00   0.490000E+02   0.100000E-02   0.000000E+00   0.000000E+00
   0.170000E+03   0.000000E+00   0.490000E+02   0.100000E-02   0.000000E+00   0.000000E+00
   0.172000E+03   0.000000E+00   0.490000E+02   0.100000E-02   0.000000E+00   0.000000E+00
   0.174000E+03   0.000000E+00   0.490000E+02   0.100000E-02   0.000000E+00   0.000000E+00
   0.176000E+03   0.000000E+00   0.490000E+02   0.100000E-02   0.000000E+00   0.000000E+00
   0.178000E+03   0.000000E+00   0.490000E+02   0.100000E-02   0.000000E+00   0.000000E+00
   0.180000E+03   0.000000E+00   0.490000E+02   0.100000E-02   0.000000E+00   0.000000E+00
   0.182000E+03   0.000000E+00   0.490000E+02   0.100000E-02   0.000000E+00   0.000000E+00
   0.184000E+03   0.000000E+00   0.490000E+02   0.100000E-02   0.000000E+00   0.000000E+00
   0.186000E+03   0.000000E+00   0.490000E+02   0.100000E-02   0.000000E+00   0.000000E+00
   0.188000E+03   0.000000E+00   0.490000E+02   0.100000E-02   0.000000E+00   0.000000E+00
   0.190000E+03   0.000000E+00   0.490000E+02   0.100000E-02   0.000000E+00   0.000000E+00
   0.192000E+03   0.000000E+00   0.490000E+02   0.100000E-02   0.000000E+00   0.000000E+00
   0.194000E+03   0.000000E+00   0.490000E+02   0.100000E-02   0.000000E+00   0.000000E+00
   0.196000E+03   0.000000E+00   0.490000E+02   0.100000E-02   0.000000E+00   0.000000E+00
   0.198000E+03   0.000000E+00   0.490000E+02   0.100000E-02   0.000000E+00   0.000000E+00
   0.200000E+03   0.000000E+00   0.490000E+02   0.100000E-02   0.000000E+00   0.000000E+00
   0.202000E+03   0.000000E+00   0.490000E+02   0.100000E-02   0.000000E+00   0.000000E+00
   0.204000E+03   0.000000E+00   0.490000E+02   0.100000E-02   0.000000E+00   0.000000E+00
   0.206000E+03   0.000000E+00   0.490000E+02   0.100000E-02   0.000000E+00   0.000000E+00
   0.208000E+03   0.000000E+00   0.490000E+02   0.100000E-02   0.000000E+00   0.000000E+00
   0.210000E+03   0.000000E+00   0.490000E+02   0.100000E-02   0.000000E+00   0.000000E+00
   0.212000E+03   0.000000E+00   0.490000E+02   0.100000E-02   0.000000E+00   0.000000E+00
   0.214000E+03   0.000000E+00   0.490000E+02   0.100000E-02   0.000000E+00   0.000000E+00
   0.216000E+03   0.000000E+00   0.490000E+02   0.100000E-02   0.000000E+00   0.000000E+00
   0.218000E+03   0.000000E+00   0.490000E+02   0.100000E-02   0.000000E+00   0.000000E+00
   0.220000E+03   0.000000E+00   0.490000E+02   0.100000E-02   0.000000E+00   0.000000E+00
   0.222000E+03   0.000000E+00   0.490000E+02   0.100000E-02   0.000000E+00   0.000000E+00
   0.224000E+03   0.000000E+00   0.490000E+02   0.100000E-02   0.000000E+00   0.000000E+00
   0.226000E+03   0.000000E+00   0.490000E+02   0.100000E-02   0.000000E+00   0.000000E+00
   0.228000E+03   0.000000E+00   0.490000E+02   0.100000E-02   0.000000E+00   0.000000E+00
   0.230000E+03   0.000000E+00   0.490000E+02   0.100000E-02   0.000000E+00   0.000000E+00
   0.232000E+03   0.000000E+00   0.490000E+02   0.100000E-02   0.000000E+00   0.000000E+00
   0.234000E+03   0.000000E+00   0.490000E+02   0.100000E-02   0.000000E+00   0.000000E+00
   0.236000E+03   0.000000E+00   0.490000E+02   0.100000E-02   0.000000E+00   0.000000E+00
   0.238000E+03   0.000000E+00   0.490000E+02   0.100000E-02   0.000000E+00   0.000000E+00
   0.240000E+03   0.000000E+00   0.490000E+02   0.100000E-02   0.000000E+00   0.000000E+00
   0.242000E+03   0.000000E+00   0.490000E+02   0.100000E-02   0.000000E+00   0.000000E+00
   0.244000E+03   0.000000E+00   0.490000E+02   0.100000E-02   0.000000E+00   0.000000E+00
   0.246000E+03   0.000000E+00   0.490000E+02   0.100000E-02   0.000000E+00   0.000000E+00
   0.248000E+03   0.000000E+00   0.490000E+02   0.100000E-02   0.000000E+00   0.000000E+00
   0.250000E+03   0.000000E+00   0.490000E+02   0.100000E-02   0.000000E+00   0.000000E+00