title="1D vertical temperature profile - time plot"                             
variables="t(d)","z(m)","T(degC)","Wu"                                          
zone i=   26,j=        0,T="at knox1,knoy1"
