 title="xz fracture velocity field tdays=     20.000"
variables="x","z","vx","vz"
zone i=          0
