Title="2D conductive heatflux top & bot; + heat leaving"
variables="x","y","fluxtop W/m^2","fluxbot W/m^2"
zone i=      1,j=    200, T= "t=     1.0 days"
   0.100000E+01   0.500000E+00  -0.000000E+00  -0.000000E+00
zone i=      1,j=    200, T= "t=     1.0 days"
   0.300000E+01   0.500000E+00  -0.000000E+00  -0.000000E+00
zone i=      1,j=    200, T= "t=     1.0 days"
   0.500000E+01   0.500000E+00  -0.000000E+00  -0.000000E+00
zone i=      1,j=    200, T= "t=     1.0 days"
   0.700000E+01   0.500000E+00  -0.000000E+00  -0.000000E+00
zone i=      1,j=    200, T= "t=     1.0 days"
   0.900000E+01   0.500000E+00  -0.000000E+00  -0.000000E+00
zone i=      1,j=    200, T= "t=     1.0 days"
   0.110000E+02   0.500000E+00  -0.000000E+00  -0.000000E+00
zone i=      1,j=    200, T= "t=     1.0 days"
   0.130000E+02   0.500000E+00  -0.000000E+00  -0.000000E+00
zone i=      1,j=    200, T= "t=     1.0 days"
   0.150000E+02   0.500000E+00  -0.000000E+00  -0.000000E+00
zone i=      1,j=    200, T= "t=     1.0 days"
   0.170000E+02   0.500000E+00  -0.000000E+00  -0.000000E+00
zone i=      1,j=    200, T= "t=     1.0 days"
   0.190000E+02   0.500000E+00  -0.000000E+00  -0.000000E+00
zone i=      1,j=    200, T= "t=     1.0 days"
   0.210000E+02   0.500000E+00  -0.000000E+00  -0.000000E+00
zone i=      1,j=    200, T= "t=     1.0 days"
   0.230000E+02   0.500000E+00  -0.000000E+00  -0.000000E+00
zone i=      1,j=    200, T= "t=     1.0 days"
   0.250000E+02   0.500000E+00  -0.000000E+00  -0.000000E+00
zone i=      1,j=    200, T= "t=     1.0 days"
   0.270000E+02   0.500000E+00  -0.000000E+00  -0.000000E+00
zone i=      1,j=    200, T= "t=     1.0 days"
   0.290000E+02   0.500000E+00  -0.000000E+00  -0.000000E+00
zone i=      1,j=    200, T= "t=     1.0 days"
   0.310000E+02   0.500000E+00  -0.000000E+00  -0.000000E+00
zone i=      1,j=    200, T= "t=     1.0 days"
   0.330000E+02   0.500000E+00  -0.000000E+00  -0.000000E+00
zone i=      1,j=    200, T= "t=     1.0 days"
   0.350000E+02   0.500000E+00  -0.000000E+00  -0.000000E+00
zone i=      1,j=    200, T= "t=     1.0 days"
   0.370000E+02   0.500000E+00  -0.000000E+00  -0.000000E+00
zone i=      1,j=    200, T= "t=     1.0 days"
   0.390000E+02   0.500000E+00  -0.000000E+00  -0.000000E+00
zone i=      1,j=    200, T= "t=     1.0 days"
   0.410000E+02   0.500000E+00  -0.000000E+00  -0.000000E+00
zone i=      1,j=    200, T= "t=     1.0 days"
   0.430000E+02   0.500000E+00  -0.000000E+00  -0.000000E+00
zone i=      1,j=    200, T= "t=     1.0 days"
   0.450000E+02   0.500000E+00  -0.000000E+00  -0.000000E+00
zone i=      1,j=    200, T= "t=     1.0 days"
   0.470000E+02   0.500000E+00  -0.000000E+00  -0.000000E+00
zone i=      1,j=    200, T= "t=     1.0 days"
   0.490000E+02   0.500000E+00  -0.000000E+00  -0.000000E+00
zone i=      1,j=    200, T= "t=     1.0 days"
   0.510000E+02   0.500000E+00  -0.000000E+00  -0.000000E+00
zone i=      1,j=    200, T= "t=     1.0 days"
   0.530000E+02   0.500000E+00  -0.000000E+00  -0.000000E+00
zone i=      1,j=    200, T= "t=     1.0 days"
   0.550000E+02   0.500000E+00  -0.000000E+00  -0.000000E+00
zone i=      1,j=    200, T= "t=     1.0 days"
   0.570000E+02   0.500000E+00  -0.000000E+00  -0.000000E+00
zone i=      1,j=    200, T= "t=     1.0 days"
   0.590000E+02   0.500000E+00  -0.000000E+00  -0.000000E+00
zone i=      1,j=    200, T= "t=     1.0 days"
   0.610000E+02   0.500000E+00  -0.000000E+00  -0.000000E+00
zone i=      1,j=    200, T= "t=     1.0 days"
   0.630000E+02   0.500000E+00  -0.000000E+00  -0.000000E+00
zone i=      1,j=    200, T= "t=     1.0 days"
   0.650000E+02   0.500000E+00  -0.000000E+00  -0.000000E+00
zone i=      1,j=    200, T= "t=     1.0 days"
   0.670000E+02   0.500000E+00  -0.000000E+00  -0.000000E+00
zone i=      1,j=    200, T= "t=     1.0 days"
   0.690000E+02   0.500000E+00  -0.000000E+00  -0.000000E+00
zone i=      1,j=    200, T= "t=     1.0 days"
   0.710000E+02   0.500000E+00  -0.000000E+00  -0.000000E+00
zone i=      1,j=    200, T= "t=     1.0 days"
   0.730000E+02   0.500000E+00  -0.000000E+00  -0.000000E+00
zone i=      1,j=    200, T= "t=     1.0 days"
   0.750000E+02   0.500000E+00  -0.000000E+00  -0.000000E+00
zone i=      1,j=    200, T= "t=     1.0 days"
   0.770000E+02   0.500000E+00  -0.000000E+00  -0.000000E+00
zone i=      1,j=    200, T= "t=     1.0 days"
   0.790000E+02   0.500000E+00  -0.000000E+00  -0.000000E+00
zone i=      1,j=    200, T= "t=     1.0 days"
   0.810000E+02   0.500000E+00  -0.000000E+00  -0.000000E+00
zone i=      1,j=    200, T= "t=     1.0 days"
   0.830000E+02   0.500000E+00  -0.000000E+00  -0.000000E+00
zone i=      1,j=    200, T= "t=     1.0 days"
   0.850000E+02   0.500000E+00  -0.000000E+00  -0.000000E+00
zone i=      1,j=    200, T= "t=     1.0 days"
   0.870000E+02   0.500000E+00  -0.000000E+00  -0.000000E+00
zone i=      1,j=    200, T= "t=     1.0 days"
   0.890000E+02   0.500000E+00  -0.000000E+00  -0.000000E+00
zone i=      1,j=    200, T= "t=     1.0 days"
   0.910000E+02   0.500000E+00  -0.000000E+00  -0.000000E+00
zone i=      1,j=    200, T= "t=     1.0 days"
   0.930000E+02   0.500000E+00  -0.000000E+00  -0.000000E+00
zone i=      1,j=    200, T= "t=     1.0 days"
   0.950000E+02   0.500000E+00  -0.000000E+00  -0.000000E+00
zone i=      1,j=    200, T= "t=     1.0 days"
   0.970000E+02   0.500000E+00  -0.000000E+00  -0.000000E+00
zone i=      1,j=    200, T= "t=     1.0 days"
   0.990000E+02   0.500000E+00  -0.000000E+00  -0.000000E+00
zone i=      1,j=    200, T= "t=     1.0 days"
   0.101000E+03   0.500000E+00  -0.000000E+00  -0.000000E+00
zone i=      1,j=    200, T= "t=     1.0 days"
   0.103000E+03   0.500000E+00  -0.000000E+00  -0.000000E+00
zone i=      1,j=    200, T= "t=     1.0 days"
   0.105000E+03   0.500000E+00  -0.000000E+00  -0.000000E+00
zone i=      1,j=    200, T= "t=     1.0 days"
   0.107000E+03   0.500000E+00  -0.000000E+00  -0.000000E+00
zone i=      1,j=    200, T= "t=     1.0 days"
   0.109000E+03   0.500000E+00  -0.000000E+00  -0.000000E+00
zone i=      1,j=    200, T= "t=     1.0 days"
   0.111000E+03   0.500000E+00  -0.000000E+00  -0.000000E+00
zone i=      1,j=    200, T= "t=     1.0 days"
   0.113000E+03   0.500000E+00  -0.000000E+00  -0.000000E+00
zone i=      1,j=    200, T= "t=     1.0 days"
   0.115000E+03   0.500000E+00  -0.000000E+00  -0.000000E+00
zone i=      1,j=    200, T= "t=     1.0 days"
   0.117000E+03   0.500000E+00  -0.000000E+00  -0.000000E+00
zone i=      1,j=    200, T= "t=     1.0 days"
   0.119000E+03   0.500000E+00  -0.000000E+00  -0.000000E+00
zone i=      1,j=    200, T= "t=     1.0 days"
   0.121000E+03   0.500000E+00  -0.000000E+00  -0.000000E+00
zone i=      1,j=    200, T= "t=     1.0 days"
   0.123000E+03   0.500000E+00  -0.000000E+00  -0.000000E+00
zone i=      1,j=    200, T= "t=     1.0 days"
   0.125000E+03   0.500000E+00  -0.000000E+00  -0.000000E+00
zone i=      1,j=    200, T= "t=     1.0 days"
   0.127000E+03   0.500000E+00  -0.000000E+00  -0.000000E+00
zone i=      1,j=    200, T= "t=     1.0 days"
   0.129000E+03   0.500000E+00  -0.000000E+00  -0.000000E+00
zone i=      1,j=    200, T= "t=     1.0 days"
   0.131000E+03   0.500000E+00  -0.000000E+00  -0.000000E+00
zone i=      1,j=    200, T= "t=     1.0 days"
   0.133000E+03   0.500000E+00  -0.000000E+00  -0.000000E+00
zone i=      1,j=    200, T= "t=     1.0 days"
   0.135000E+03   0.500000E+00  -0.000000E+00  -0.000000E+00
zone i=      1,j=    200, T= "t=     1.0 days"
   0.137000E+03   0.500000E+00  -0.000000E+00  -0.000000E+00
zone i=      1,j=    200, T= "t=     1.0 days"
   0.139000E+03   0.500000E+00  -0.000000E+00  -0.000000E+00
zone i=      1,j=    200, T= "t=     1.0 days"
   0.141000E+03   0.500000E+00  -0.000000E+00  -0.000000E+00
zone i=      1,j=    200, T= "t=     1.0 days"
   0.143000E+03   0.500000E+00  -0.000000E+00  -0.000000E+00
zone i=      1,j=    200, T= "t=     1.0 days"
   0.145000E+03   0.500000E+00  -0.000000E+00  -0.000000E+00
zone i=      1,j=    200, T= "t=     1.0 days"
   0.147000E+03   0.500000E+00  -0.000000E+00  -0.000000E+00
zone i=      1,j=    200, T= "t=     1.0 days"
   0.149000E+03   0.500000E+00  -0.000000E+00  -0.000000E+00
zone i=      1,j=    200, T= "t=     1.0 days"
   0.151000E+03   0.500000E+00  -0.000000E+00  -0.000000E+00
zone i=      1,j=    200, T= "t=     1.0 days"
   0.153000E+03   0.500000E+00  -0.000000E+00  -0.000000E+00
zone i=      1,j=    200, T= "t=     1.0 days"
   0.155000E+03   0.500000E+00  -0.000000E+00  -0.000000E+00
zone i=      1,j=    200, T= "t=     1.0 days"
   0.157000E+03   0.500000E+00  -0.000000E+00  -0.000000E+00
zone i=      1,j=    200, T= "t=     1.0 days"
   0.159000E+03   0.500000E+00  -0.000000E+00  -0.000000E+00
zone i=      1,j=    200, T= "t=     1.0 days"
   0.161000E+03   0.500000E+00  -0.000000E+00  -0.000000E+00
zone i=      1,j=    200, T= "t=     1.0 days"
   0.163000E+03   0.500000E+00  -0.000000E+00  -0.000000E+00
zone i=      1,j=    200, T= "t=     1.0 days"
   0.165000E+03   0.500000E+00  -0.000000E+00  -0.000000E+00
zone i=      1,j=    200, T= "t=     1.0 days"
   0.167000E+03   0.500000E+00  -0.000000E+00  -0.000000E+00
zone i=      1,j=    200, T= "t=     1.0 days"
   0.169000E+03   0.500000E+00  -0.000000E+00  -0.000000E+00
zone i=      1,j=    200, T= "t=     1.0 days"
   0.171000E+03   0.500000E+00  -0.000000E+00  -0.000000E+00
zone i=      1,j=    200, T= "t=     1.0 days"
   0.173000E+03   0.500000E+00  -0.000000E+00  -0.000000E+00
zone i=      1,j=    200, T= "t=     1.0 days"
   0.175000E+03   0.500000E+00  -0.000000E+00  -0.000000E+00
zone i=      1,j=    200, T= "t=     1.0 days"
   0.177000E+03   0.500000E+00  -0.000000E+00  -0.000000E+00
zone i=      1,j=    200, T= "t=     1.0 days"
   0.179000E+03   0.500000E+00  -0.000000E+00  -0.000000E+00
zone i=      1,j=    200, T= "t=     1.0 days"
   0.181000E+03   0.500000E+00  -0.000000E+00  -0.000000E+00
zone i=      1,j=    200, T= "t=     1.0 days"
   0.183000E+03   0.500000E+00  -0.000000E+00  -0.000000E+00
zone i=      1,j=    200, T= "t=     1.0 days"
   0.185000E+03   0.500000E+00  -0.000000E+00  -0.000000E+00
zone i=      1,j=    200, T= "t=     1.0 days"
   0.187000E+03   0.500000E+00  -0.000000E+00  -0.000000E+00
zone i=      1,j=    200, T= "t=     1.0 days"
   0.189000E+03   0.500000E+00  -0.000000E+00  -0.000000E+00
zone i=      1,j=    200, T= "t=     1.0 days"
   0.191000E+03   0.500000E+00  -0.000000E+00  -0.000000E+00
zone i=      1,j=    200, T= "t=     1.0 days"
   0.193000E+03   0.500000E+00  -0.000000E+00  -0.000000E+00
zone i=      1,j=    200, T= "t=     1.0 days"
   0.195000E+03   0.500000E+00  -0.000000E+00  -0.000000E+00
zone i=      1,j=    200, T= "t=     1.0 days"
   0.197000E+03   0.500000E+00  -0.000000E+00  -0.000000E+00
zone i=      1,j=    200, T= "t=     1.0 days"
   0.199000E+03   0.500000E+00  -0.000000E+00  -0.000000E+00
zone i=      1,j=    200, T= "t=     1.0 days"
   0.201000E+03   0.500000E+00  -0.000000E+00  -0.000000E+00
zone i=      1,j=    200, T= "t=     1.0 days"
   0.203000E+03   0.500000E+00  -0.000000E+00  -0.000000E+00
zone i=      1,j=    200, T= "t=     1.0 days"
   0.205000E+03   0.500000E+00  -0.000000E+00  -0.000000E+00
zone i=      1,j=    200, T= "t=     1.0 days"
   0.207000E+03   0.500000E+00  -0.000000E+00  -0.000000E+00
zone i=      1,j=    200, T= "t=     1.0 days"
   0.209000E+03   0.500000E+00  -0.000000E+00  -0.000000E+00
zone i=      1,j=    200, T= "t=     1.0 days"
   0.211000E+03   0.500000E+00  -0.000000E+00  -0.000000E+00
zone i=      1,j=    200, T= "t=     1.0 days"
   0.213000E+03   0.500000E+00  -0.000000E+00  -0.000000E+00
zone i=      1,j=    200, T= "t=     1.0 days"
   0.215000E+03   0.500000E+00  -0.000000E+00  -0.000000E+00
zone i=      1,j=    200, T= "t=     1.0 days"
   0.217000E+03   0.500000E+00  -0.000000E+00  -0.000000E+00
zone i=      1,j=    200, T= "t=     1.0 days"
   0.219000E+03   0.500000E+00  -0.000000E+00  -0.000000E+00
zone i=      1,j=    200, T= "t=     1.0 days"
   0.221000E+03   0.500000E+00  -0.000000E+00  -0.000000E+00
zone i=      1,j=    200, T= "t=     1.0 days"
   0.223000E+03   0.500000E+00  -0.000000E+00  -0.000000E+00
zone i=      1,j=    200, T= "t=     1.0 days"
   0.225000E+03   0.500000E+00  -0.000000E+00  -0.000000E+00
zone i=      1,j=    200, T= "t=     1.0 days"
   0.227000E+03   0.500000E+00  -0.000000E+00  -0.000000E+00
zone i=      1,j=    200, T= "t=     1.0 days"
   0.229000E+03   0.500000E+00  -0.000000E+00  -0.000000E+00
zone i=      1,j=    200, T= "t=     1.0 days"
   0.231000E+03   0.500000E+00  -0.000000E+00  -0.000000E+00
zone i=      1,j=    200, T= "t=     1.0 days"
   0.233000E+03   0.500000E+00  -0.000000E+00  -0.000000E+00
zone i=      1,j=    200, T= "t=     1.0 days"
   0.235000E+03   0.500000E+00  -0.000000E+00  -0.000000E+00
zone i=      1,j=    200, T= "t=     1.0 days"
   0.237000E+03   0.500000E+00  -0.000000E+00  -0.000000E+00
zone i=      1,j=    200, T= "t=     1.0 days"
   0.239000E+03   0.500000E+00  -0.000000E+00  -0.000000E+00
zone i=      1,j=    200, T= "t=     1.0 days"
   0.241000E+03   0.500000E+00  -0.000000E+00  -0.000000E+00
zone i=      1,j=    200, T= "t=     1.0 days"
   0.243000E+03   0.500000E+00  -0.000000E+00  -0.000000E+00
zone i=      1,j=    200, T= "t=     1.0 days"
   0.245000E+03   0.500000E+00  -0.000000E+00  -0.000000E+00
zone i=      1,j=    200, T= "t=     1.0 days"
   0.247000E+03   0.500000E+00  -0.000000E+00  -0.000000E+00
zone i=      1,j=    200, T= "t=     1.0 days"
   0.249000E+03   0.500000E+00  -0.000000E+00  -0.000000E+00
zone i=      1,j=    200, T= "t=     1.0 days"
   0.251000E+03   0.500000E+00  -0.000000E+00  -0.000000E+00
zone i=      1,j=    200, T= "t=     1.0 days"
   0.253000E+03   0.500000E+00  -0.000000E+00  -0.000000E+00
zone i=      1,j=    200, T= "t=     1.0 days"
   0.255000E+03   0.500000E+00  -0.000000E+00  -0.000000E+00
zone i=      1,j=    200, T= "t=     1.0 days"
   0.257000E+03   0.500000E+00  -0.000000E+00  -0.000000E+00
zone i=      1,j=    200, T= "t=     1.0 days"
   0.259000E+03   0.500000E+00  -0.000000E+00  -0.000000E+00
zone i=      1,j=    200, T= "t=     1.0 days"
   0.261000E+03   0.500000E+00  -0.000000E+00  -0.000000E+00
zone i=      1,j=    200, T= "t=     1.0 days"
   0.263000E+03   0.500000E+00  -0.000000E+00  -0.000000E+00
zone i=      1,j=    200, T= "t=     1.0 days"
   0.265000E+03   0.500000E+00  -0.000000E+00  -0.000000E+00
zone i=      1,j=    200, T= "t=     1.0 days"
   0.267000E+03   0.500000E+00  -0.000000E+00  -0.000000E+00
zone i=      1,j=    200, T= "t=     1.0 days"
   0.269000E+03   0.500000E+00  -0.000000E+00  -0.000000E+00
zone i=      1,j=    200, T= "t=     1.0 days"
   0.271000E+03   0.500000E+00  -0.000000E+00  -0.000000E+00
zone i=      1,j=    200, T= "t=     1.0 days"
   0.273000E+03   0.500000E+00  -0.000000E+00  -0.000000E+00
zone i=      1,j=    200, T= "t=     1.0 days"
   0.275000E+03   0.500000E+00  -0.000000E+00  -0.000000E+00
zone i=      1,j=    200, T= "t=     1.0 days"
   0.277000E+03   0.500000E+00  -0.000000E+00  -0.000000E+00
zone i=      1,j=    200, T= "t=     1.0 days"
   0.279000E+03   0.500000E+00  -0.000000E+00  -0.000000E+00
zone i=      1,j=    200, T= "t=     1.0 days"
   0.281000E+03   0.500000E+00  -0.000000E+00  -0.000000E+00
zone i=      1,j=    200, T= "t=     1.0 days"
   0.283000E+03   0.500000E+00  -0.000000E+00  -0.000000E+00
zone i=      1,j=    200, T= "t=     1.0 days"
   0.285000E+03   0.500000E+00  -0.000000E+00  -0.000000E+00
zone i=      1,j=    200, T= "t=     1.0 days"
   0.287000E+03   0.500000E+00  -0.000000E+00  -0.000000E+00
zone i=      1,j=    200, T= "t=     1.0 days"
   0.289000E+03   0.500000E+00  -0.000000E+00  -0.000000E+00
zone i=      1,j=    200, T= "t=     1.0 days"
   0.291000E+03   0.500000E+00  -0.000000E+00  -0.000000E+00
zone i=      1,j=    200, T= "t=     1.0 days"
   0.293000E+03   0.500000E+00  -0.000000E+00  -0.000000E+00
zone i=      1,j=    200, T= "t=     1.0 days"
   0.295000E+03   0.500000E+00  -0.000000E+00  -0.000000E+00
zone i=      1,j=    200, T= "t=     1.0 days"
   0.297000E+03   0.500000E+00  -0.000000E+00  -0.000000E+00
zone i=      1,j=    200, T= "t=     1.0 days"
   0.299000E+03   0.500000E+00  -0.000000E+00  -0.000000E+00
zone i=      1,j=    200, T= "t=     1.0 days"
   0.301000E+03   0.500000E+00  -0.000000E+00  -0.000000E+00
zone i=      1,j=    200, T= "t=     1.0 days"
   0.303000E+03   0.500000E+00  -0.000000E+00  -0.000000E+00
zone i=      1,j=    200, T= "t=     1.0 days"
   0.305000E+03   0.500000E+00  -0.000000E+00  -0.000000E+00
zone i=      1,j=    200, T= "t=     1.0 days"
   0.307000E+03   0.500000E+00  -0.000000E+00  -0.000000E+00
zone i=      1,j=    200, T= "t=     1.0 days"
   0.309000E+03   0.500000E+00  -0.000000E+00  -0.000000E+00
zone i=      1,j=    200, T= "t=     1.0 days"
   0.311000E+03   0.500000E+00  -0.000000E+00  -0.000000E+00
zone i=      1,j=    200, T= "t=     1.0 days"
   0.313000E+03   0.500000E+00  -0.000000E+00  -0.000000E+00
zone i=      1,j=    200, T= "t=     1.0 days"
   0.315000E+03   0.500000E+00  -0.000000E+00  -0.000000E+00
zone i=      1,j=    200, T= "t=     1.0 days"
   0.317000E+03   0.500000E+00  -0.000000E+00  -0.000000E+00
zone i=      1,j=    200, T= "t=     1.0 days"
   0.319000E+03   0.500000E+00  -0.000000E+00  -0.000000E+00
zone i=      1,j=    200, T= "t=     1.0 days"
   0.321000E+03   0.500000E+00  -0.000000E+00  -0.000000E+00
zone i=      1,j=    200, T= "t=     1.0 days"
   0.323000E+03   0.500000E+00  -0.000000E+00  -0.000000E+00
zone i=      1,j=    200, T= "t=     1.0 days"
   0.325000E+03   0.500000E+00  -0.000000E+00  -0.000000E+00
zone i=      1,j=    200, T= "t=     1.0 days"
   0.327000E+03   0.500000E+00  -0.000000E+00  -0.000000E+00
zone i=      1,j=    200, T= "t=     1.0 days"
   0.329000E+03   0.500000E+00  -0.000000E+00  -0.000000E+00
zone i=      1,j=    200, T= "t=     1.0 days"
   0.331000E+03   0.500000E+00  -0.000000E+00  -0.000000E+00
zone i=      1,j=    200, T= "t=     1.0 days"
   0.333000E+03   0.500000E+00  -0.000000E+00  -0.000000E+00
zone i=      1,j=    200, T= "t=     1.0 days"
   0.335000E+03   0.500000E+00  -0.000000E+00  -0.000000E+00
zone i=      1,j=    200, T= "t=     1.0 days"
   0.337000E+03   0.500000E+00  -0.000000E+00  -0.000000E+00
zone i=      1,j=    200, T= "t=     1.0 days"
   0.339000E+03   0.500000E+00  -0.000000E+00  -0.000000E+00
zone i=      1,j=    200, T= "t=     1.0 days"
   0.341000E+03   0.500000E+00  -0.000000E+00  -0.000000E+00
zone i=      1,j=    200, T= "t=     1.0 days"
   0.343000E+03   0.500000E+00  -0.000000E+00  -0.000000E+00
zone i=      1,j=    200, T= "t=     1.0 days"
   0.345000E+03   0.500000E+00  -0.000000E+00  -0.000000E+00
zone i=      1,j=    200, T= "t=     1.0 days"
   0.347000E+03   0.500000E+00  -0.000000E+00  -0.000000E+00
zone i=      1,j=    200, T= "t=     1.0 days"
   0.349000E+03   0.500000E+00  -0.000000E+00  -0.000000E+00
zone i=      1,j=    200, T= "t=     1.0 days"
   0.351000E+03   0.500000E+00  -0.000000E+00  -0.000000E+00
zone i=      1,j=    200, T= "t=     1.0 days"
   0.353000E+03   0.500000E+00  -0.000000E+00  -0.000000E+00
zone i=      1,j=    200, T= "t=     1.0 days"
   0.355000E+03   0.500000E+00  -0.000000E+00  -0.000000E+00
zone i=      1,j=    200, T= "t=     1.0 days"
   0.357000E+03   0.500000E+00  -0.000000E+00  -0.000000E+00
zone i=      1,j=    200, T= "t=     1.0 days"
   0.359000E+03   0.500000E+00  -0.000000E+00  -0.000000E+00
zone i=      1,j=    200, T= "t=     1.0 days"
   0.361000E+03   0.500000E+00  -0.000000E+00  -0.000000E+00
zone i=      1,j=    200, T= "t=     1.0 days"
   0.363000E+03   0.500000E+00  -0.000000E+00  -0.000000E+00
zone i=      1,j=    200, T= "t=     1.0 days"
   0.365000E+03   0.500000E+00  -0.000000E+00  -0.000000E+00
zone i=      1,j=    200, T= "t=     1.0 days"
   0.367000E+03   0.500000E+00  -0.000000E+00  -0.000000E+00
zone i=      1,j=    200, T= "t=     1.0 days"
   0.369000E+03   0.500000E+00  -0.000000E+00  -0.000000E+00
zone i=      1,j=    200, T= "t=     1.0 days"
   0.371000E+03   0.500000E+00  -0.000000E+00  -0.000000E+00
zone i=      1,j=    200, T= "t=     1.0 days"
   0.373000E+03   0.500000E+00  -0.000000E+00  -0.000000E+00
zone i=      1,j=    200, T= "t=     1.0 days"
   0.375000E+03   0.500000E+00  -0.000000E+00  -0.000000E+00
zone i=      1,j=    200, T= "t=     1.0 days"
   0.377000E+03   0.500000E+00  -0.000000E+00  -0.000000E+00
zone i=      1,j=    200, T= "t=     1.0 days"
   0.379000E+03   0.500000E+00  -0.000000E+00  -0.000000E+00
zone i=      1,j=    200, T= "t=     1.0 days"
   0.381000E+03   0.500000E+00  -0.000000E+00  -0.000000E+00
zone i=      1,j=    200, T= "t=     1.0 days"
   0.383000E+03   0.500000E+00  -0.000000E+00  -0.000000E+00
zone i=      1,j=    200, T= "t=     1.0 days"
   0.385000E+03   0.500000E+00  -0.000000E+00  -0.000000E+00
zone i=      1,j=    200, T= "t=     1.0 days"
   0.387000E+03   0.500000E+00  -0.000000E+00  -0.000000E+00
zone i=      1,j=    200, T= "t=     1.0 days"
   0.389000E+03   0.500000E+00  -0.000000E+00  -0.000000E+00
zone i=      1,j=    200, T= "t=     1.0 days"
   0.391000E+03   0.500000E+00  -0.000000E+00  -0.000000E+00
zone i=      1,j=    200, T= "t=     1.0 days"
   0.393000E+03   0.500000E+00  -0.000000E+00  -0.000000E+00
zone i=      1,j=    200, T= "t=     1.0 days"
   0.395000E+03   0.500000E+00  -0.000000E+00  -0.000000E+00
zone i=      1,j=    200, T= "t=     1.0 days"
   0.397000E+03   0.500000E+00  -0.000000E+00  -0.000000E+00
zone i=      1,j=    200, T= "t=     1.0 days"
   0.399000E+03   0.500000E+00  -0.000000E+00  -0.000000E+00
