title="Mass in matrix, fractures and column"
variables="tdays","Mass in matrix (kg)","Mass in fractures",     "Mass in column"
zone i=999
