title="freezing front location: 1dx at knoy(1),knoz(1)"
variables="time(days)","x(m)"
zone i=       1, T="ts=      0.00"
    0.10000E+01    0.00000E+00
