title="freeze/thaw front location: 1dz at knox(1),knoy(1)"
variables="time(days)"," z_T>0","z_T<0"
zone i=       1, T="ts=      0.00"
    0.10000E+01    0.00000E+00    0.00000E+00
