 title="xy fracture velocities on knoz1 element surface   tdays=      1.000"
variables="x","y","vx","vy"
zone i=          0
