variables="time","fluxleft (W)","fluxright (W)","Sum_fluxleft (J)","Sum_fluxright (J)""hflxtop (W)","hflxbot (W)","Wu_vol (m3)","Keqleft (m/s)","Keqright(m/s)"
zone i= 9999,T="Boundary Heatfluxes"
    0.00000E+00    0.00000E+00    0.00000E+00    0.00000E+00    0.00000E+00    0.00000E+00    0.00000E+00    0.40000E+04    0.10000E-04    0.50000E-04
    0.10000E+01    0.00000E+00    0.00000E+00    0.00000E+00    0.00000E+00    0.00000E+00    0.00000E+00    0.40000E+04    0.10000E-19    0.10000E-19
number of print times:      1 (replace 9999 above)
