 Title="htotr=wrt_Tmpa;htota=wrt_Tref;hinr=pq;hts2=cum_leak2bdy;hqtop=cum_top_recharge"
 variables="time","htotr(J)","htota(J)","hinr(J)","hts2-leak(J)","hqtop(J)"
 zone i=9999, T="htot(J); replace 9999 with bottom #"
             0.0    0.137625E+14    0.000000E+00             0.0             0.0             0.0
  0.10000000E+01  0.13762476E+14  0.00000000E+00  0.00000000E+00  0.00000000E+00  0.00000000E+00
number of print times:      1 (replace 9999 above)
