variables="x","Co","tkl"
zone i=   200,T="       1.000, days, kz=    0"
