title="1D horizontal temperature profile - time plot"                           
variables="t(d)","x(m)","T(degC)","Wu"                                          
zone i=  201,j=        0,T="at knoy1,knoz1"
