title="1D horizontal temperature profile - time plot"
variables="t(d)","x(m)","T(degC)","Wu"
zone i=  201,j= 9999,T="at knoy1,knoz1"
number of print times:      0 (replace 9999 above)
