variables="x","hflux_xl(W/m2)"
zone i=   201,T="       1.000, days, heatflux across transfer layer kz=   26"
