title="2d xz vectors"
variables="x","z","vx","vz"
zone i=    25, j=   200, T=" 0.10000E+01"
  0.100000E+01  0.100000E+01  0.401508E-06 -0.401143E-06
  0.100000E+01  0.300000E+01  0.152836E-05 -0.265266E-05
  0.100000E+01  0.500000E+01  0.104889E-05 -0.490699E-05
  0.100000E+01  0.700000E+01  0.105777E-05 -0.701102E-05
  0.100000E+01  0.900000E+01  0.108186E-05 -0.914313E-05
  0.100000E+01  0.110000E+02  0.112415E-05 -0.113445E-04
  0.100000E+01  0.130000E+02  0.118054E-05 -0.136444E-04
  0.100000E+01  0.150000E+02  0.125226E-05 -0.160718E-04
  0.100000E+01  0.170000E+02  0.134190E-05 -0.186594E-04
  0.100000E+01  0.190000E+02  0.145338E-05 -0.214467E-04
  0.100000E+01  0.210000E+02  0.159224E-05 -0.244821E-04
  0.100000E+01  0.230000E+02  0.176623E-05 -0.278273E-04
  0.100000E+01  0.250000E+02  0.198639E-05 -0.315624E-04
  0.100000E+01  0.270000E+02  0.226876E-05 -0.357936E-04
  0.100000E+01  0.290000E+02  0.263728E-05 -0.406661E-04
  0.100000E+01  0.310000E+02  0.312892E-05 -0.463837E-04
  0.100000E+01  0.330000E+02  0.380304E-05 -0.532426E-04
  0.100000E+01  0.350000E+02  0.475981E-05 -0.616901E-04
  0.100000E+01  0.370000E+02  0.617884E-05 -0.724359E-04
  0.100000E+01  0.390000E+02  0.840595E-05 -0.866749E-04
  0.100000E+01  0.410000E+02  0.121996E-04 -0.106582E-03
  0.100000E+01  0.430000E+02  0.192044E-04 -0.136544E-03
  0.100000E+01  0.450000E+02  0.368748E-04 -0.186955E-03
  0.100000E+01  0.470000E+02  0.632081E-04 -0.286931E-03
  0.100000E+01  0.490000E+02  0.615930E-03 -0.615250E-03
  0.300000E+01  0.100000E+01  0.264099E-05 -0.151018E-05
  0.300000E+01  0.300000E+01  0.315188E-05 -0.311649E-05
  0.300000E+01  0.500000E+01  0.314205E-05 -0.493246E-05
  0.300000E+01  0.700000E+01  0.314611E-05 -0.697262E-05
  0.300000E+01  0.900000E+01  0.323173E-05 -0.907181E-05
  0.300000E+01  0.110000E+02  0.335889E-05 -0.112464E-04
  0.300000E+01  0.130000E+02  0.352672E-05 -0.135183E-04
  0.300000E+01  0.150000E+02  0.373925E-05 -0.159136E-04
  0.300000E+01  0.170000E+02  0.400435E-05 -0.184628E-04
  0.300000E+01  0.190000E+02  0.433347E-05 -0.212026E-04
  0.300000E+01  0.210000E+02  0.474260E-05 -0.241781E-04
  0.300000E+01  0.230000E+02  0.525406E-05 -0.274458E-04
  0.300000E+01  0.250000E+02  0.589937E-05 -0.310784E-04
  0.300000E+01  0.270000E+02  0.672404E-05 -0.351706E-04
  0.300000E+01  0.290000E+02  0.779538E-05 -0.398493E-04
  0.300000E+01  0.310000E+02  0.921609E-05 -0.452882E-04
  0.300000E+01  0.330000E+02  0.111488E-04 -0.517313E-04
  0.300000E+01  0.350000E+02  0.138625E-04 -0.595309E-04
  0.300000E+01  0.370000E+02  0.178270E-04 -0.692117E-04
  0.300000E+01  0.390000E+02  0.239201E-04 -0.815789E-04
  0.300000E+01  0.410000E+02  0.339064E-04 -0.978978E-04
  0.300000E+01  0.430000E+02  0.519703E-04 -0.120159E-03
  0.300000E+01  0.450000E+02  0.869632E-04 -0.150676E-03
  0.300000E+01  0.470000E+02  0.192940E-03 -0.190900E-03
  0.300000E+01  0.490000E+02  0.288970E-03 -0.625282E-04
  0.500000E+01  0.100000E+01  0.483422E-05 -0.999945E-06
  0.500000E+01  0.300000E+01  0.493909E-05 -0.301097E-05
  0.500000E+01  0.500000E+01  0.507612E-05 -0.491077E-05
  0.500000E+01  0.700000E+01  0.518822E-05 -0.687815E-05
  0.500000E+01  0.900000E+01  0.534222E-05 -0.892665E-05
  0.500000E+01  0.110000E+02  0.555464E-05 -0.110520E-04
  0.500000E+01  0.130000E+02  0.582924E-05 -0.132703E-04
  0.500000E+01  0.150000E+02  0.617480E-05 -0.156036E-04
  0.500000E+01  0.170000E+02  0.660422E-05 -0.180784E-04
  0.500000E+01  0.190000E+02  0.713554E-05 -0.207267E-04
  0.500000E+01  0.210000E+02  0.779354E-05 -0.235870E-04
  0.500000E+01  0.230000E+02  0.861237E-05 -0.267067E-04
  0.500000E+01  0.250000E+02  0.963973E-05 -0.301448E-04
  0.500000E+01  0.270000E+02  0.109434E-04 -0.339757E-04
  0.500000E+01  0.290000E+02  0.126220E-04 -0.382942E-04
  0.500000E+01  0.310000E+02  0.148225E-04 -0.432221E-04
  0.500000E+01  0.330000E+02  0.177708E-04 -0.489164E-04
  0.500000E+01  0.350000E+02  0.218266E-04 -0.555763E-04
  0.500000E+01  0.370000E+02  0.275854E-04 -0.634430E-04
  0.500000E+01  0.390000E+02  0.360767E-04 -0.727632E-04
  0.500000E+01  0.410000E+02  0.491808E-04 -0.836230E-04
  0.500000E+01  0.430000E+02  0.702937E-04 -0.952574E-04
  0.500000E+01  0.450000E+02  0.107139E-03 -0.103740E-03
  0.500000E+01  0.470000E+02  0.154076E-03 -0.849234E-04
  0.500000E+01  0.490000E+02  0.190355E-03 -0.361948E-04
  0.700000E+01  0.100000E+01  0.679789E-05 -0.961054E-06
  0.700000E+01  0.300000E+01  0.687083E-05 -0.287205E-05
  0.700000E+01  0.500000E+01  0.699870E-05 -0.478479E-05
  0.700000E+01  0.700000E+01  0.717206E-05 -0.671867E-05
  0.700000E+01  0.900000E+01  0.739675E-05 -0.870744E-05
  0.700000E+01  0.110000E+02  0.768938E-05 -0.107661E-04
  0.700000E+01  0.130000E+02  0.806218E-05 -0.129088E-04
  0.700000E+01  0.150000E+02  0.852809E-05 -0.151537E-04
  0.700000E+01  0.170000E+02  0.910432E-05 -0.175227E-04
  0.700000E+01  0.190000E+02  0.981391E-05 -0.200415E-04
  0.700000E+01  0.210000E+02  0.106879E-04 -0.227401E-04
  0.700000E+01  0.230000E+02  0.117684E-04 -0.256541E-04
  0.700000E+01  0.250000E+02  0.131133E-04 -0.288252E-04
  0.700000E+01  0.270000E+02  0.148028E-04 -0.323021E-04
  0.700000E+01  0.290000E+02  0.169508E-04 -0.361412E-04
  0.700000E+01  0.310000E+02  0.197211E-04 -0.404043E-04
  0.700000E+01  0.330000E+02  0.233550E-04 -0.451521E-04
  0.700000E+01  0.350000E+02  0.282139E-04 -0.504259E-04
  0.700000E+01  0.370000E+02  0.348493E-04 -0.561993E-04
  0.700000E+01  0.390000E+02  0.441070E-04 -0.622579E-04
  0.700000E+01  0.410000E+02  0.572373E-04 -0.678938E-04
  0.700000E+01  0.430000E+02  0.759352E-04 -0.711759E-04
  0.700000E+01  0.450000E+02  0.100017E-03 -0.668939E-04
  0.700000E+01  0.470000E+02  0.124919E-03 -0.499303E-04
  0.700000E+01  0.490000E+02  0.141304E-03 -0.185244E-04
  0.900000E+01  0.100000E+01  0.867816E-05 -0.921309E-06
  0.900000E+01  0.300000E+01  0.875054E-05 -0.276647E-05
  0.900000E+01  0.500000E+01  0.889195E-05 -0.462110E-05
  0.900000E+01  0.700000E+01  0.910078E-05 -0.650016E-05
  0.900000E+01  0.900000E+01  0.938177E-05 -0.842028E-05
  0.900000E+01  0.110000E+02  0.974489E-05 -0.103975E-04
  0.900000E+01  0.130000E+02  0.102034E-04 -0.124461E-04
  0.900000E+01  0.150000E+02  0.107730E-04 -0.145808E-04
  0.900000E+01  0.170000E+02  0.114736E-04 -0.168186E-04
  0.900000E+01  0.190000E+02  0.123314E-04 -0.191782E-04
  0.900000E+01  0.210000E+02  0.133807E-04 -0.216801E-04
  0.900000E+01  0.230000E+02  0.146674E-04 -0.243470E-04
  0.900000E+01  0.250000E+02  0.162526E-04 -0.272022E-04
  0.900000E+01  0.270000E+02  0.182195E-04 -0.302687E-04
  0.900000E+01  0.290000E+02  0.206812E-04 -0.335650E-04
  0.900000E+01  0.310000E+02  0.237937E-04 -0.370976E-04
  0.900000E+01  0.330000E+02  0.277731E-04 -0.408455E-04
  0.900000E+01  0.350000E+02  0.329180E-04 -0.447286E-04
  0.900000E+01  0.370000E+02  0.396333E-04 -0.485460E-04
  0.900000E+01  0.390000E+02  0.484333E-04 -0.518535E-04
  0.900000E+01  0.410000E+02  0.598597E-04 -0.537414E-04
  0.900000E+01  0.430000E+02  0.740123E-04 -0.524778E-04
  0.900000E+01  0.450000E+02  0.897421E-04 -0.457807E-04
  0.900000E+01  0.470000E+02  0.104017E-03 -0.318661E-04
  0.900000E+01  0.490000E+02  0.112702E-03 -0.115195E-04
  0.110000E+02  0.100000E+01  0.104837E-04 -0.883254E-06
  0.110000E+02  0.300000E+01  0.105626E-04 -0.265326E-05
  0.110000E+02  0.500000E+01  0.107205E-04 -0.443494E-05
  0.110000E+02  0.700000E+01  0.109596E-04 -0.623847E-05
  0.110000E+02  0.900000E+01  0.112849E-04 -0.807561E-05
  0.110000E+02  0.110000E+02  0.117058E-04 -0.995820E-05
  0.110000E+02  0.130000E+02  0.122349E-04 -0.118978E-04
  0.110000E+02  0.150000E+02  0.128888E-04 -0.139057E-04
  0.110000E+02  0.170000E+02  0.136885E-04 -0.159935E-04
  0.110000E+02  0.190000E+02  0.146610E-04 -0.181730E-04
  0.110000E+02  0.210000E+02  0.158412E-04 -0.204557E-04
  0.110000E+02  0.230000E+02  0.172746E-04 -0.228514E-04
  0.110000E+02  0.250000E+02  0.190201E-04 -0.253669E-04
  0.110000E+02  0.270000E+02  0.211551E-04 -0.280022E-04
  0.110000E+02  0.290000E+02  0.237801E-04 -0.307448E-04
  0.110000E+02  0.310000E+02  0.270264E-04 -0.335592E-04
  0.110000E+02  0.330000E+02  0.310618E-04 -0.363692E-04
  0.110000E+02  0.350000E+02  0.360947E-04 -0.390272E-04
  0.110000E+02  0.370000E+02  0.423630E-04 -0.412638E-04
  0.110000E+02  0.390000E+02  0.500872E-04 -0.426114E-04
  0.110000E+02  0.410000E+02  0.593298E-04 -0.423146E-04
  0.110000E+02  0.430000E+02  0.697353E-04 -0.393465E-04
  0.110000E+02  0.450000E+02  0.802419E-04 -0.326756E-04
  0.110000E+02  0.470000E+02  0.890587E-04 -0.218791E-04
  0.110000E+02  0.490000E+02  0.941552E-04 -0.772556E-05
  0.130000E+02  0.100000E+01  0.122101E-04 -0.842079E-06
  0.130000E+02  0.300000E+01  0.122961E-04 -0.252956E-05
  0.130000E+02  0.500000E+01  0.124694E-04 -0.422734E-05
  0.130000E+02  0.700000E+01  0.127334E-04 -0.594313E-05
  0.130000E+02  0.900000E+01  0.130937E-04 -0.768521E-05
  0.130000E+02  0.110000E+02  0.135595E-04 -0.946191E-05
  0.130000E+02  0.130000E+02  0.141432E-04 -0.112812E-04
  0.130000E+02  0.150000E+02  0.148609E-04 -0.131506E-04
  0.130000E+02  0.170000E+02  0.157331E-04 -0.150766E-04
  0.130000E+02  0.190000E+02  0.167862E-04 -0.170644E-04
  0.130000E+02  0.210000E+02  0.180530E-04 -0.191172E-04
  0.130000E+02  0.230000E+02  0.195754E-04 -0.212341E-04
  0.130000E+02  0.250000E+02  0.214060E-04 -0.234081E-04
  0.130000E+02  0.270000E+02  0.236105E-04 -0.256216E-04
  0.130000E+02  0.290000E+02  0.262704E-04 -0.278404E-04
  0.130000E+02  0.310000E+02  0.294843E-04 -0.300034E-04
  0.130000E+02  0.330000E+02  0.333664E-04 -0.320073E-04
  0.130000E+02  0.350000E+02  0.380382E-04 -0.336844E-04
  0.130000E+02  0.370000E+02  0.436036E-04 -0.347728E-04
  0.130000E+02  0.390000E+02  0.500955E-04 -0.348863E-04
  0.130000E+02  0.410000E+02  0.573797E-04 -0.335129E-04
  0.130000E+02  0.430000E+02  0.650355E-04 -0.300869E-04
  0.130000E+02  0.450000E+02  0.722816E-04 -0.241825E-04
  0.130000E+02  0.470000E+02  0.780521E-04 -0.157848E-04
  0.130000E+02  0.490000E+02  0.812774E-04 -0.549804E-05
  0.150000E+02  0.100000E+01  0.138510E-04 -0.797757E-06
  0.150000E+02  0.300000E+01  0.139430E-04 -0.239589E-05
  0.150000E+02  0.500000E+01  0.141287E-04 -0.400197E-05
  0.150000E+02  0.700000E+01  0.144118E-04 -0.562151E-05
  0.150000E+02  0.900000E+01  0.147982E-04 -0.726002E-05
  0.150000E+02  0.110000E+02  0.152967E-04 -0.892280E-05
  0.150000E+02  0.130000E+02  0.159189E-04 -0.106145E-04
  0.150000E+02  0.150000E+02  0.166801E-04 -0.123386E-04
  0.150000E+02  0.170000E+02  0.175993E-04 -0.140971E-04
  0.150000E+02  0.190000E+02  0.187004E-04 -0.158898E-04
  0.150000E+02  0.210000E+02  0.200128E-04 -0.177126E-04
  0.150000E+02  0.230000E+02  0.215725E-04 -0.195566E-04
  0.150000E+02  0.250000E+02  0.234231E-04 -0.214045E-04
  0.150000E+02  0.270000E+02  0.256165E-04 -0.232273E-04
  0.150000E+02  0.290000E+02  0.282127E-04 -0.249786E-04
  0.150000E+02  0.310000E+02  0.312779E-04 -0.265861E-04
  0.150000E+02  0.330000E+02  0.348787E-04 -0.279416E-04
  0.150000E+02  0.350000E+02  0.390695E-04 -0.288877E-04
  0.150000E+02  0.370000E+02  0.438675E-04 -0.292060E-04
  0.150000E+02  0.390000E+02  0.492136E-04 -0.286152E-04
  0.150000E+02  0.410000E+02  0.549193E-04 -0.267941E-04
  0.150000E+02  0.430000E+02  0.606211E-04 -0.234481E-04
  0.150000E+02  0.450000E+02  0.657755E-04 -0.184209E-04
  0.150000E+02  0.470000E+02  0.697330E-04 -0.118185E-04
  0.150000E+02  0.490000E+02  0.718938E-04 -0.407835E-05
  0.170000E+02  0.100000E+01  0.154003E-04 -0.750860E-06
  0.170000E+02  0.300000E+01  0.154967E-04 -0.225436E-05
  0.170000E+02  0.500000E+01  0.156913E-04 -0.376320E-05
  0.170000E+02  0.700000E+01  0.159877E-04 -0.528081E-05
  0.170000E+02  0.900000E+01  0.163916E-04 -0.681036E-05
  0.170000E+02  0.110000E+02  0.169112E-04 -0.835446E-05
  0.170000E+02  0.130000E+02  0.175570E-04 -0.991473E-05
  0.170000E+02  0.150000E+02  0.183428E-04 -0.114914E-04
  0.170000E+02  0.170000E+02  0.192854E-04 -0.130825E-04
  0.170000E+02  0.190000E+02  0.204055E-04 -0.146832E-04
  0.170000E+02  0.210000E+02  0.217278E-04 -0.162845E-04
  0.170000E+02  0.230000E+02  0.232816E-04 -0.178713E-04
  0.170000E+02  0.250000E+02  0.251004E-04 -0.194203E-04
  0.170000E+02  0.270000E+02  0.272221E-04 -0.208964E-04
  0.170000E+02  0.290000E+02  0.296867E-04 -0.222487E-04
  0.170000E+02  0.310000E+02  0.325328E-04 -0.234047E-04
  0.170000E+02  0.330000E+02  0.357907E-04 -0.242643E-04
  0.170000E+02  0.350000E+02  0.394699E-04 -0.246950E-04
  0.170000E+02  0.370000E+02  0.435407E-04 -0.245298E-04
  0.170000E+02  0.390000E+02  0.479093E-04 -0.235766E-04
  0.170000E+02  0.410000E+02  0.523931E-04 -0.216431E-04
  0.170000E+02  0.430000E+02  0.567069E-04 -0.185836E-04
  0.170000E+02  0.450000E+02  0.604772E-04 -0.143607E-04
  0.170000E+02  0.470000E+02  0.632965E-04 -0.910188E-05
  0.170000E+02  0.490000E+02  0.648100E-04 -0.312061E-05
  0.190000E+02  0.100000E+01  0.168538E-04 -0.702179E-06
  0.190000E+02  0.300000E+01  0.169529E-04 -0.210748E-05
  0.190000E+02  0.500000E+01  0.171529E-04 -0.351556E-05
  0.190000E+02  0.700000E+01  0.174569E-04 -0.492798E-05
  0.190000E+02  0.900000E+01  0.178703E-04 -0.634585E-05
  0.190000E+02  0.110000E+02  0.184003E-04 -0.776946E-05
  0.190000E+02  0.130000E+02  0.190562E-04 -0.919796E-05
  0.190000E+02  0.150000E+02  0.198499E-04 -0.106288E-04
  0.190000E+02  0.170000E+02  0.207955E-04 -0.120569E-04
  0.190000E+02  0.190000E+02  0.219100E-04 -0.134742E-04
  0.190000E+02  0.210000E+02  0.232130E-04 -0.148681E-04
  0.190000E+02  0.230000E+02  0.247269E-04 -0.162201E-04
  0.190000E+02  0.250000E+02  0.264759E-04 -0.175037E-04
  0.190000E+02  0.270000E+02  0.284848E-04 -0.186824E-04
  0.190000E+02  0.290000E+02  0.307770E-04 -0.197060E-04
  0.190000E+02  0.310000E+02  0.333700E-04 -0.205082E-04
  0.190000E+02  0.330000E+02  0.362692E-04 -0.210037E-04
  0.190000E+02  0.350000E+02  0.394579E-04 -0.210877E-04
  0.190000E+02  0.370000E+02  0.428852E-04 -0.206390E-04
  0.190000E+02  0.390000E+02  0.464525E-04 -0.195316E-04
  0.190000E+02  0.410000E+02  0.500025E-04 -0.176543E-04
  0.190000E+02  0.430000E+02  0.533197E-04 -0.149414E-04
  0.190000E+02  0.450000E+02  0.561463E-04 -0.114059E-04
  0.190000E+02  0.470000E+02  0.582186E-04 -0.716511E-05
  0.190000E+02  0.490000E+02  0.593173E-04 -0.244508E-05
  0.210000E+02  0.100000E+01  0.182087E-04 -0.652528E-06
  0.210000E+02  0.300000E+01  0.183089E-04 -0.195776E-05
  0.210000E+02  0.500000E+01  0.185109E-04 -0.326343E-05
  0.210000E+02  0.700000E+01  0.188175E-04 -0.456946E-05
  0.210000E+02  0.900000E+01  0.192332E-04 -0.587519E-05
  0.210000E+02  0.110000E+02  0.197643E-04 -0.717904E-05
  0.210000E+02  0.130000E+02  0.204186E-04 -0.847813E-05
  0.210000E+02  0.150000E+02  0.212059E-04 -0.976773E-05
  0.210000E+02  0.170000E+02  0.221375E-04 -0.110407E-04
  0.210000E+02  0.190000E+02  0.232267E-04 -0.122867E-04
  0.210000E+02  0.210000E+02  0.244882E-04 -0.134910E-04
  0.210000E+02  0.230000E+02  0.259377E-04 -0.146337E-04
  0.210000E+02  0.250000E+02  0.275910E-04 -0.156878E-04
  0.210000E+02  0.270000E+02  0.294625E-04 -0.166179E-04
  0.210000E+02  0.290000E+02  0.315626E-04 -0.173782E-04
  0.210000E+02  0.310000E+02  0.338941E-04 -0.179115E-04
  0.210000E+02  0.330000E+02  0.364468E-04 -0.181486E-04
  0.210000E+02  0.350000E+02  0.391910E-04 -0.180100E-04
  0.210000E+02  0.370000E+02  0.420694E-04 -0.174109E-04
  0.210000E+02  0.390000E+02  0.449912E-04 -0.162707E-04
  0.210000E+02  0.410000E+02  0.478282E-04 -0.145281E-04
  0.210000E+02  0.430000E+02  0.504193E-04 -0.121593E-04
  0.210000E+02  0.450000E+02  0.525843E-04 -0.919644E-05
  0.210000E+02  0.470000E+02  0.541479E-04 -0.573877E-05
  0.210000E+02  0.490000E+02  0.549690E-04 -0.195153E-05
  0.230000E+02  0.100000E+01  0.194638E-04 -0.602664E-06
  0.230000E+02  0.300000E+01  0.195637E-04 -0.180750E-05
  0.230000E+02  0.500000E+01  0.197647E-04 -0.301075E-05
  0.230000E+02  0.700000E+01  0.200694E-04 -0.421094E-05
  0.230000E+02  0.900000E+01  0.204813E-04 -0.540598E-05
  0.230000E+02  0.110000E+02  0.210057E-04 -0.659280E-05
  0.230000E+02  0.130000E+02  0.216487E-04 -0.776697E-05
  0.230000E+02  0.150000E+02  0.224181E-04 -0.892229E-05
  0.230000E+02  0.170000E+02  0.233225E-04 -0.100502E-04
  0.230000E+02  0.190000E+02  0.243715E-04 -0.111390E-04
  0.230000E+02  0.210000E+02  0.255754E-04 -0.121733E-04
  0.230000E+02  0.230000E+02  0.269442E-04 -0.131331E-04
  0.230000E+02  0.250000E+02  0.284867E-04 -0.139926E-04
  0.230000E+02  0.270000E+02  0.302092E-04 -0.147192E-04
  0.230000E+02  0.290000E+02  0.321127E-04 -0.152732E-04
  0.230000E+02  0.310000E+02  0.341906E-04 -0.156071E-04
  0.230000E+02  0.330000E+02  0.364240E-04 -0.156668E-04
  0.230000E+02  0.350000E+02  0.387780E-04 -0.153936E-04
  0.230000E+02  0.370000E+02  0.411971E-04 -0.147296E-04
  0.230000E+02  0.390000E+02  0.436026E-04 -0.136248E-04
  0.230000E+02  0.410000E+02  0.458922E-04 -0.120474E-04
  0.230000E+02  0.430000E+02  0.479458E-04 -0.999535E-05
  0.230000E+02  0.450000E+02  0.496355E-04 -0.750575E-05
  0.230000E+02  0.470000E+02  0.508416E-04 -0.465991E-05
  0.230000E+02  0.490000E+02  0.514703E-04 -0.158045E-05
  0.250000E+02  0.100000E+01  0.206195E-04 -0.553251E-06
  0.250000E+02  0.300000E+01  0.207178E-04 -0.165871E-05
  0.250000E+02  0.500000E+01  0.209154E-04 -0.276091E-05
  0.250000E+02  0.700000E+01  0.212143E-04 -0.385727E-05
  0.250000E+02  0.900000E+01  0.216175E-04 -0.494456E-05
  0.250000E+02  0.110000E+02  0.221287E-04 -0.601860E-05
  0.250000E+02  0.130000E+02  0.227529E-04 -0.707391E-05
  0.250000E+02  0.150000E+02  0.234956E-04 -0.810329E-05
  0.250000E+02  0.170000E+02  0.243630E-04 -0.909740E-05
  0.250000E+02  0.190000E+02  0.253615E-04 -0.100442E-04
  0.250000E+02  0.210000E+02  0.264974E-04 -0.109284E-04
  0.250000E+02  0.230000E+02  0.277761E-04 -0.117307E-04
  0.250000E+02  0.250000E+02  0.292010E-04 -0.124276E-04
  0.250000E+02  0.270000E+02  0.307722E-04 -0.129905E-04
  0.250000E+02  0.290000E+02  0.324847E-04 -0.133858E-04
  0.250000E+02  0.310000E+02  0.343261E-04 -0.135753E-04
  0.250000E+02  0.330000E+02  0.362736E-04 -0.135177E-04
  0.250000E+02  0.350000E+02  0.382918E-04 -0.131705E-04
  0.250000E+02  0.370000E+02  0.403303E-04 -0.124951E-04
  0.250000E+02  0.390000E+02  0.423229E-04 -0.114613E-04
  0.250000E+02  0.410000E+02  0.441891E-04 -0.100550E-04
  0.250000E+02  0.430000E+02  0.458386E-04 -0.828460E-05
  0.250000E+02  0.450000E+02  0.471793E-04 -0.618615E-05
  0.250000E+02  0.470000E+02  0.481273E-04 -0.382540E-05
  0.250000E+02  0.490000E+02  0.486188E-04 -0.129476E-05
  0.270000E+02  0.100000E+01  0.216772E-04 -0.504842E-06
  0.270000E+02  0.300000E+01  0.217729E-04 -0.151305E-05
  0.270000E+02  0.500000E+01  0.219652E-04 -0.251670E-05
  0.270000E+02  0.700000E+01  0.222554E-04 -0.351236E-05
  0.270000E+02  0.900000E+01  0.226458E-04 -0.449597E-05
  0.270000E+02  0.110000E+02  0.231391E-04 -0.546258E-05
  0.270000E+02  0.130000E+02  0.237388E-04 -0.640605E-05
  0.270000E+02  0.150000E+02  0.244486E-04 -0.731867E-05
  0.270000E+02  0.170000E+02  0.252724E-04 -0.819087E-05
  0.270000E+02  0.190000E+02  0.262138E-04 -0.901074E-05
  0.270000E+02  0.210000E+02  0.272761E-04 -0.976369E-05
  0.270000E+02  0.230000E+02  0.284607E-04 -0.104321E-04
  0.270000E+02  0.250000E+02  0.297672E-04 -0.109949E-04
  0.270000E+02  0.270000E+02  0.311914E-04 -0.114277E-04
  0.270000E+02  0.290000E+02  0.327246E-04 -0.117029E-04
  0.270000E+02  0.310000E+02  0.343511E-04 -0.117904E-04
  0.270000E+02  0.330000E+02  0.360473E-04 -0.116589E-04
  0.270000E+02  0.350000E+02  0.377798E-04 -0.112786E-04
  0.270000E+02  0.370000E+02  0.395042E-04 -0.106240E-04
  0.270000E+02  0.390000E+02  0.411660E-04 -0.967797E-05
  0.270000E+02  0.410000E+02  0.427017E-04 -0.843644E-05
  0.270000E+02  0.430000E+02  0.440430E-04 -0.691234E-05
  0.270000E+02  0.450000E+02  0.451224E-04 -0.513837E-05
  0.270000E+02  0.470000E+02  0.458800E-04 -0.316750E-05
  0.270000E+02  0.490000E+02  0.462709E-04 -0.107034E-05
  0.290000E+02  0.100000E+01  0.226393E-04 -0.457874E-06
  0.290000E+02  0.300000E+01  0.227318E-04 -0.137182E-05
  0.290000E+02  0.500000E+01  0.229172E-04 -0.228028E-05
  0.290000E+02  0.700000E+01  0.231965E-04 -0.317919E-05
  0.290000E+02  0.900000E+01  0.235713E-04 -0.406397E-05
  0.290000E+02  0.110000E+02  0.240433E-04 -0.492920E-05
  0.290000E+02  0.130000E+02  0.246147E-04 -0.576839E-05
  0.290000E+02  0.150000E+02  0.252875E-04 -0.657373E-05
  0.290000E+02  0.170000E+02  0.260638E-04 -0.733577E-05
  0.290000E+02  0.190000E+02  0.269450E-04 -0.804317E-05
  0.290000E+02  0.210000E+02  0.279316E-04 -0.868246E-05
  0.290000E+02  0.230000E+02  0.290224E-04 -0.923782E-05
  0.290000E+02  0.250000E+02  0.302140E-04 -0.969103E-05
  0.290000E+02  0.270000E+02  0.314997E-04 -0.100216E-04
  0.290000E+02  0.290000E+02  0.328682E-04 -0.102073E-04
  0.290000E+02  0.310000E+02  0.343031E-04 -0.102246E-04
  0.290000E+02  0.330000E+02  0.357812E-04 -0.100504E-04
  0.290000E+02  0.350000E+02  0.372720E-04 -0.966388E-05
  0.290000E+02  0.370000E+02  0.387377E-04 -0.904868E-05
  0.290000E+02  0.390000E+02  0.401332E-04 -0.819598E-05
  0.290000E+02  0.410000E+02  0.414087E-04 -0.710731E-05
  0.290000E+02  0.430000E+02  0.425118E-04 -0.579703E-05
  0.290000E+02  0.450000E+02  0.433923E-04 -0.429377E-05
  0.290000E+02  0.470000E+02  0.440066E-04 -0.264020E-05
  0.290000E+02  0.490000E+02  0.443223E-04 -0.891007E-06
  0.310000E+02  0.100000E+01  0.235093E-04 -0.412664E-06
  0.310000E+02  0.300000E+01  0.235979E-04 -0.123599E-05
  0.310000E+02  0.500000E+01  0.237754E-04 -0.205320E-05
  0.310000E+02  0.700000E+01  0.240424E-04 -0.285990E-05
  0.310000E+02  0.900000E+01  0.243997E-04 -0.365117E-05
  0.310000E+02  0.110000E+02  0.248483E-04 -0.442140E-05
  0.310000E+02  0.130000E+02  0.253890E-04 -0.516405E-05
  0.310000E+02  0.150000E+02  0.260228E-04 -0.587144E-05
  0.310000E+02  0.170000E+02  0.267500E-04 -0.653458E-05
  0.310000E+02  0.190000E+02  0.275703E-04 -0.714293E-05
  0.310000E+02  0.210000E+02  0.284821E-04 -0.768434E-05
  0.310000E+02  0.230000E+02  0.294822E-04 -0.814492E-05
  0.310000E+02  0.250000E+02  0.305654E-04 -0.850915E-05
  0.310000E+02  0.270000E+02  0.317231E-04 -0.876013E-05
  0.310000E+02  0.290000E+02  0.329433E-04 -0.888002E-05
  0.310000E+02  0.310000E+02  0.342094E-04 -0.885087E-05
  0.310000E+02  0.330000E+02  0.354997E-04 -0.865575E-05
  0.310000E+02  0.350000E+02  0.367871E-04 -0.828026E-05
  0.310000E+02  0.370000E+02  0.380394E-04 -0.771437E-05
  0.310000E+02  0.390000E+02  0.392198E-04 -0.695435E-05
  0.310000E+02  0.410000E+02  0.402886E-04 -0.600471E-05
  0.310000E+02  0.430000E+02  0.412054E-04 -0.487964E-05
  0.310000E+02  0.450000E+02  0.419324E-04 -0.360369E-05
  0.310000E+02  0.470000E+02  0.424370E-04 -0.221137E-05
  0.310000E+02  0.490000E+02  0.426956E-04 -0.745511E-06
  0.330000E+02  0.100000E+01  0.242907E-04 -0.369426E-06
  0.330000E+02  0.300000E+01  0.243751E-04 -0.110616E-05
  0.330000E+02  0.500000E+01  0.245442E-04 -0.183648E-05
  0.330000E+02  0.700000E+01  0.247980E-04 -0.255579E-05
  0.330000E+02  0.900000E+01  0.251368E-04 -0.325911E-05
  0.330000E+02  0.110000E+02  0.255609E-04 -0.394081E-05
  0.330000E+02  0.130000E+02  0.260703E-04 -0.459451E-05
  0.330000E+02  0.150000E+02  0.266645E-04 -0.521291E-05
  0.330000E+02  0.170000E+02  0.273428E-04 -0.578761E-05
  0.330000E+02  0.190000E+02  0.281034E-04 -0.630906E-05
  0.330000E+02  0.210000E+02  0.289434E-04 -0.676648E-05
  0.330000E+02  0.230000E+02  0.298581E-04 -0.714787E-05
  0.330000E+02  0.250000E+02  0.308410E-04 -0.744019E-05
  0.330000E+02  0.270000E+02  0.318827E-04 -0.762963E-05
  0.330000E+02  0.290000E+02  0.329709E-04 -0.770211E-05
  0.330000E+02  0.310000E+02  0.340896E-04 -0.764396E-05
  0.330000E+02  0.330000E+02  0.352192E-04 -0.744289E-05
  0.330000E+02  0.350000E+02  0.363357E-04 -0.708917E-05
  0.330000E+02  0.370000E+02  0.374119E-04 -0.657696E-05
  0.330000E+02  0.390000E+02  0.384176E-04 -0.590565E-05
  0.330000E+02  0.410000E+02  0.393211E-04 -0.508112E-05
  0.330000E+02  0.430000E+02  0.400909E-04 -0.411660E-05
  0.330000E+02  0.450000E+02  0.406978E-04 -0.303290E-05
  0.330000E+02  0.470000E+02  0.411173E-04 -0.185803E-05
  0.330000E+02  0.490000E+02  0.413317E-04 -0.625860E-06
  0.350000E+02  0.100000E+01  0.249877E-04 -0.328271E-06
  0.350000E+02  0.300000E+01  0.250678E-04 -0.982679E-06
  0.350000E+02  0.500000E+01  0.252282E-04 -0.163061E-05
  0.350000E+02  0.700000E+01  0.254685E-04 -0.226749E-05
  0.350000E+02  0.900000E+01  0.257887E-04 -0.288840E-05
  0.350000E+02  0.110000E+02  0.261882E-04 -0.348790E-05
  0.350000E+02  0.130000E+02  0.266664E-04 -0.405993E-05
  0.350000E+02  0.150000E+02  0.272219E-04 -0.459767E-05
  0.350000E+02  0.170000E+02  0.278530E-04 -0.509348E-05
  0.350000E+02  0.190000E+02  0.285567E-04 -0.553882E-05
  0.350000E+02  0.210000E+02  0.293292E-04 -0.592427E-05
  0.350000E+02  0.230000E+02  0.301650E-04 -0.623961E-05
  0.350000E+02  0.250000E+02  0.310566E-04 -0.647398E-05
  0.350000E+02  0.270000E+02  0.319945E-04 -0.661622E-05
  0.350000E+02  0.290000E+02  0.329666E-04 -0.665527E-05
  0.350000E+02  0.310000E+02  0.339578E-04 -0.658079E-05
  0.350000E+02  0.330000E+02  0.349504E-04 -0.638396E-05
  0.350000E+02  0.350000E+02  0.359236E-04 -0.605834E-05
  0.350000E+02  0.370000E+02  0.368543E-04 -0.560084E-05
  0.350000E+02  0.390000E+02  0.377177E-04 -0.501268E-05
  0.350000E+02  0.410000E+02  0.384881E-04 -0.430017E-05
  0.350000E+02  0.430000E+02  0.391407E-04 -0.347520E-05
  0.350000E+02  0.450000E+02  0.396528E-04 -0.255533E-05
  0.350000E+02  0.470000E+02  0.400055E-04 -0.156334E-05
  0.350000E+02  0.490000E+02  0.401854E-04 -0.526234E-06
  0.370000E+02  0.100000E+01  0.256044E-04 -0.289228E-06
  0.370000E+02  0.300000E+01  0.256804E-04 -0.865600E-06
  0.370000E+02  0.500000E+01  0.258321E-04 -0.143566E-05
  0.370000E+02  0.700000E+01  0.260592E-04 -0.199499E-05
  0.370000E+02  0.900000E+01  0.263610E-04 -0.253888E-05
  0.370000E+02  0.110000E+02  0.267367E-04 -0.306221E-05
  0.370000E+02  0.130000E+02  0.271848E-04 -0.355935E-05
  0.370000E+02  0.150000E+02  0.277035E-04 -0.402407E-05
  0.370000E+02  0.170000E+02  0.282900E-04 -0.444951E-05
  0.370000E+02  0.190000E+02  0.289408E-04 -0.482818E-05
  0.370000E+02  0.210000E+02  0.296513E-04 -0.515195E-05
  0.370000E+02  0.230000E+02  0.304153E-04 -0.541218E-05
  0.370000E+02  0.250000E+02  0.312251E-04 -0.559994E-05
  0.370000E+02  0.270000E+02  0.320712E-04 -0.570623E-05
  0.370000E+02  0.290000E+02  0.329420E-04 -0.572243E-05
  0.370000E+02  0.310000E+02  0.338236E-04 -0.564077E-05
  0.370000E+02  0.330000E+02  0.347001E-04 -0.545495E-05
  0.370000E+02  0.350000E+02  0.355534E-04 -0.516084E-05
  0.370000E+02  0.370000E+02  0.363639E-04 -0.475712E-05
  0.370000E+02  0.390000E+02  0.371109E-04 -0.424598E-05
  0.370000E+02  0.410000E+02  0.377738E-04 -0.363362E-05
  0.370000E+02  0.430000E+02  0.383324E-04 -0.293050E-05
  0.370000E+02  0.450000E+02  0.387690E-04 -0.215135E-05
  0.370000E+02  0.470000E+02  0.390689E-04 -0.131473E-05
  0.370000E+02  0.490000E+02  0.392215E-04 -0.442300E-06
  0.390000E+02  0.100000E+01  0.261453E-04 -0.252248E-06
  0.390000E+02  0.300000E+01  0.262171E-04 -0.754773E-06
  0.390000E+02  0.500000E+01  0.263606E-04 -0.125134E-05
  0.390000E+02  0.700000E+01  0.265750E-04 -0.173779E-05
  0.390000E+02  0.900000E+01  0.268595E-04 -0.220976E-05
  0.390000E+02  0.110000E+02  0.272126E-04 -0.266252E-05
  0.390000E+02  0.130000E+02  0.276326E-04 -0.309096E-05
  0.390000E+02  0.150000E+02  0.281169E-04 -0.348951E-05
  0.390000E+02  0.170000E+02  0.286623E-04 -0.385212E-05
  0.390000E+02  0.190000E+02  0.292648E-04 -0.417227E-05
  0.390000E+02  0.210000E+02  0.299192E-04 -0.444304E-05
  0.390000E+02  0.230000E+02  0.306190E-04 -0.465721E-05
  0.390000E+02  0.250000E+02  0.313566E-04 -0.480747E-05
  0.390000E+02  0.270000E+02  0.321226E-04 -0.488660E-05
  0.390000E+02  0.290000E+02  0.329059E-04 -0.488792E-05
  0.390000E+02  0.310000E+02  0.336940E-04 -0.480561E-05
  0.390000E+02  0.330000E+02  0.344724E-04 -0.463520E-05
  0.390000E+02  0.350000E+02  0.352256E-04 -0.437412E-05
  0.390000E+02  0.370000E+02  0.359368E-04 -0.402217E-05
  0.390000E+02  0.390000E+02  0.365887E-04 -0.358197E-05
  0.390000E+02  0.410000E+02  0.371642E-04 -0.305928E-05
  0.390000E+02  0.430000E+02  0.376472E-04 -0.246316E-05
  0.390000E+02  0.450000E+02  0.380234E-04 -0.180590E-05
  0.390000E+02  0.470000E+02  0.382811E-04 -0.110263E-05
  0.390000E+02  0.490000E+02  0.384121E-04 -0.370774E-06
  0.410000E+02  0.100000E+01  0.266141E-04 -0.217222E-06
  0.410000E+02  0.300000E+01  0.266822E-04 -0.649857E-06
  0.410000E+02  0.500000E+01  0.268179E-04 -0.107703E-05
  0.410000E+02  0.700000E+01  0.270206E-04 -0.149498E-05
  0.410000E+02  0.900000E+01  0.272890E-04 -0.189971E-05
  0.410000E+02  0.110000E+02  0.276215E-04 -0.228700E-05
  0.410000E+02  0.130000E+02  0.280157E-04 -0.265231E-05
  0.410000E+02  0.150000E+02  0.284688E-04 -0.299073E-05
  0.410000E+02  0.170000E+02  0.289772E-04 -0.329703E-05
  0.410000E+02  0.190000E+02  0.295365E-04 -0.356562E-05
  0.410000E+02  0.210000E+02  0.301411E-04 -0.379068E-05
  0.410000E+02  0.230000E+02  0.307846E-04 -0.396621E-05
  0.410000E+02  0.250000E+02  0.314592E-04 -0.408626E-05
  0.410000E+02  0.270000E+02  0.321560E-04 -0.414509E-05
  0.410000E+02  0.290000E+02  0.328646E-04 -0.413751E-05
  0.410000E+02  0.310000E+02  0.335734E-04 -0.405916E-05
  0.410000E+02  0.330000E+02  0.342697E-04 -0.390691E-05
  0.410000E+02  0.350000E+02  0.349397E-04 -0.367923E-05
  0.410000E+02  0.370000E+02  0.355690E-04 -0.337655E-05
  0.410000E+02  0.390000E+02  0.361431E-04 -0.300157E-05
  0.410000E+02  0.410000E+02  0.366478E-04 -0.255947E-05
  0.410000E+02  0.430000E+02  0.370698E-04 -0.205796E-05
  0.410000E+02  0.450000E+02  0.373975E-04 -0.150723E-05
  0.410000E+02  0.470000E+02  0.376214E-04 -0.919607E-06