title="2d xy vectors"
variables="x","y","vx","vy"
zone i=     1, j=   200, T=" 0.10000E+01"
  0.100000E+01  0.500000E+00  0.401508E-06 -0.924501E-13
  0.300000E+01  0.500000E+00  0.264099E-05  0.126205E-12
  0.500000E+01  0.500000E+00  0.483422E-05  0.398508E-12
  0.700000E+01  0.500000E+00  0.679789E-05  0.240835E-12
  0.900000E+01  0.500000E+00  0.867816E-05  0.103580E-12
  0.110000E+02  0.500000E+00  0.104837E-04 -0.179083E-12
  0.130000E+02  0.500000E+00  0.122101E-04 -0.162502E-12
  0.150000E+02  0.500000E+00  0.138510E-04 -0.383158E-12
  0.170000E+02  0.500000E+00  0.154003E-04 -0.297711E-12
  0.190000E+02  0.500000E+00  0.168538E-04  0.957319E-13
  0.210000E+02  0.500000E+00  0.182087E-04  0.111181E-12
  0.230000E+02  0.500000E+00  0.194638E-04  0.312357E-12
  0.250000E+02  0.500000E+00  0.206195E-04  0.326755E-12
  0.270000E+02  0.500000E+00  0.216772E-04  0.121433E-12
  0.290000E+02  0.500000E+00  0.226393E-04 -0.710820E-13
  0.310000E+02  0.500000E+00  0.235093E-04  0.671616E-13
  0.330000E+02  0.500000E+00  0.242907E-04 -0.107398E-12
  0.350000E+02  0.500000E+00  0.249877E-04 -0.214892E-12
  0.370000E+02  0.500000E+00  0.256044E-04 -0.474133E-12
  0.390000E+02  0.500000E+00  0.261453E-04 -0.761799E-12
  0.410000E+02  0.500000E+00  0.266141E-04 -0.599120E-12
  0.430000E+02  0.500000E+00  0.270147E-04 -0.698840E-12
  0.450000E+02  0.500000E+00  0.273506E-04 -0.677247E-12
  0.470000E+02  0.500000E+00  0.276246E-04 -0.700681E-12
  0.490000E+02  0.500000E+00  0.278391E-04 -0.973946E-12
  0.510000E+02  0.500000E+00  0.279962E-04 -0.117141E-11
  0.530000E+02  0.500000E+00  0.280970E-04 -0.735574E-12
  0.550000E+02  0.500000E+00  0.281422E-04 -0.542118E-12
  0.570000E+02  0.500000E+00  0.281318E-04 -0.412694E-12
  0.590000E+02  0.500000E+00  0.280650E-04  0.719180E-13
  0.610000E+02  0.500000E+00  0.279403E-04  0.470609E-12
  0.630000E+02  0.500000E+00  0.277555E-04  0.320830E-12
  0.650000E+02  0.500000E+00  0.275073E-04  0.549560E-15
  0.670000E+02  0.500000E+00  0.271920E-04  0.273869E-12
  0.690000E+02  0.500000E+00  0.268045E-04  0.497635E-12
  0.710000E+02  0.500000E+00  0.263392E-04  0.558043E-12
  0.730000E+02  0.500000E+00  0.257894E-04  0.285415E-12
  0.750000E+02  0.500000E+00  0.251477E-04  0.198512E-13
  0.770000E+02  0.500000E+00  0.244060E-04  0.691891E-13
  0.790000E+02  0.500000E+00  0.235556E-04  0.278735E-12
  0.810000E+02  0.500000E+00  0.225880E-04  0.217648E-12
  0.830000E+02  0.500000E+00  0.214948E-04 -0.290285E-12
  0.850000E+02  0.500000E+00  0.202692E-04 -0.363714E-12
  0.870000E+02  0.500000E+00  0.189067E-04 -0.273288E-12
  0.890000E+02  0.500000E+00  0.174061E-04 -0.193837E-12
  0.910000E+02  0.500000E+00  0.157715E-04 -0.483061E-12
  0.930000E+02  0.500000E+00  0.140127E-04 -0.510952E-12
  0.950000E+02  0.500000E+00  0.121466E-04 -0.245134E-12
  0.970000E+02  0.500000E+00  0.101971E-04 -0.271872E-12
  0.990000E+02  0.500000E+00  0.819387E-05  0.605351E-13
  0.101000E+03  0.500000E+00  0.617082E-05  0.444043E-13
  0.103000E+03  0.500000E+00  0.416321E-05  0.425029E-13
  0.105000E+03  0.500000E+00  0.220479E-05 -0.628630E-13
  0.107000E+03  0.500000E+00  0.325189E-06 -0.374512E-12
  0.109000E+03  0.500000E+00 -0.145207E-05 -0.267285E-12
  0.111000E+03  0.500000E+00 -0.311047E-05  0.178047E-12
  0.113000E+03  0.500000E+00 -0.464048E-05  0.354812E-12
  0.115000E+03  0.500000E+00 -0.603883E-05  0.209215E-12
  0.117000E+03  0.500000E+00 -0.730729E-05  0.321078E-12
  0.119000E+03  0.500000E+00 -0.845141E-05  0.211200E-12
  0.121000E+03  0.500000E+00 -0.947929E-05 -0.847424E-13
  0.123000E+03  0.500000E+00 -0.104007E-04 -0.334410E-12
  0.125000E+03  0.500000E+00 -0.112263E-04 -0.189267E-12
  0.127000E+03  0.500000E+00 -0.119674E-04  0.157538E-13
  0.129000E+03  0.500000E+00 -0.126360E-04 -0.277797E-12
  0.131000E+03  0.500000E+00 -0.132452E-04 -0.385584E-12
  0.133000E+03  0.500000E+00 -0.138103E-04 -0.362511E-12
  0.135000E+03  0.500000E+00 -0.143518E-04 -0.509526E-12
  0.137000E+03  0.500000E+00 -0.149016E-04 -0.337084E-12
  0.139000E+03  0.500000E+00 -0.155191E-04 -0.463616E-12
  0.141000E+03  0.500000E+00 -0.163409E-04 -0.690235E-12
  0.143000E+03  0.500000E+00 -0.177595E-04 -0.674791E-12
  0.145000E+03  0.500000E+00 -0.211863E-04 -0.647089E-12
  0.147000E+03  0.500000E+00 -0.249222E-04 -0.255265E-12
  0.149000E+03  0.500000E+00 -0.240799E-04  0.153069E-13
  0.151000E+03  0.500000E+00 -0.202420E-04  0.158227E-13
  0.153000E+03  0.500000E+00 -0.180989E-04 -0.146894E-12
  0.155000E+03  0.500000E+00 -0.175376E-04 -0.364959E-12
  0.157000E+03  0.500000E+00 -0.172530E-04 -0.243581E-12
  0.159000E+03  0.500000E+00 -0.170834E-04 -0.237241E-13
  0.161000E+03  0.500000E+00 -0.169994E-04 -0.626457E-13
  0.163000E+03  0.500000E+00 -0.169625E-04 -0.935456E-13
  0.165000E+03  0.500000E+00 -0.169509E-04  0.228410E-12
  0.167000E+03  0.500000E+00 -0.169534E-04  0.106172E-12
  0.169000E+03  0.500000E+00 -0.169635E-04 -0.362585E-12
  0.171000E+03  0.500000E+00 -0.169776E-04 -0.500595E-13
  0.173000E+03  0.500000E+00 -0.169934E-04  0.656348E-13
  0.175000E+03  0.500000E+00 -0.170095E-04 -0.183100E-12
  0.177000E+03  0.500000E+00 -0.170252E-04  0.622578E-13
  0.179000E+03  0.500000E+00 -0.170401E-04  0.322337E-12
  0.181000E+03  0.500000E+00 -0.170539E-04  0.348069E-12
  0.183000E+03  0.500000E+00 -0.170664E-04 -0.124044E-12
  0.185000E+03  0.500000E+00 -0.170778E-04 -0.464822E-12
  0.187000E+03  0.500000E+00 -0.170879E-04 -0.125566E-12
  0.189000E+03  0.500000E+00 -0.170968E-04  0.255888E-12
  0.191000E+03  0.500000E+00 -0.171045E-04  0.511267E-12
  0.193000E+03  0.500000E+00 -0.171112E-04  0.240867E-12
  0.195000E+03  0.500000E+00 -0.171168E-04 -0.830132E-13
  0.197000E+03  0.500000E+00 -0.171215E-04  0.171002E-12
  0.199000E+03  0.500000E+00 -0.171251E-04  0.652592E-12
  0.201000E+03  0.500000E+00 -0.171279E-04  0.692145E-12
  0.203000E+03  0.500000E+00 -0.171297E-04  0.123779E-12
  0.205000E+03  0.500000E+00 -0.171306E-04  0.190964E-12
  0.207000E+03  0.500000E+00 -0.171305E-04  0.534374E-12
  0.209000E+03  0.500000E+00 -0.171294E-04  0.719010E-12
  0.211000E+03  0.500000E+00 -0.171272E-04  0.667693E-12
  0.213000E+03  0.500000E+00 -0.171237E-04 -0.821609E-13
  0.215000E+03  0.500000E+00 -0.171187E-04 -0.353208E-12
  0.217000E+03  0.500000E+00 -0.171120E-04 -0.419189E-12
  0.219000E+03  0.500000E+00 -0.171032E-04 -0.419663E-12
  0.221000E+03  0.500000E+00 -0.170918E-04  0.675349E-14
  0.223000E+03  0.500000E+00 -0.170771E-04 -0.156154E-12
  0.225000E+03  0.500000E+00 -0.170581E-04 -0.468582E-12
  0.227000E+03  0.500000E+00 -0.170333E-04 -0.492306E-12
  0.229000E+03  0.500000E+00 -0.170007E-04 -0.344720E-12
  0.231000E+03  0.500000E+00 -0.169573E-04 -0.451930E-13
  0.233000E+03  0.500000E+00 -0.168987E-04 -0.262127E-12
  0.235000E+03  0.500000E+00 -0.168181E-04 -0.396993E-12
  0.237000E+03  0.500000E+00 -0.167046E-04  0.193682E-12
  0.239000E+03  0.500000E+00 -0.165447E-04  0.399193E-12
  0.241000E+03  0.500000E+00 -0.162891E-04 -0.464364E-13
  0.243000E+03  0.500000E+00 -0.159750E-04 -0.401727E-12
  0.245000E+03  0.500000E+00 -0.156423E-04 -0.225022E-12
  0.247000E+03  0.500000E+00 -0.141951E-04  0.905216E-13
  0.249000E+03  0.500000E+00 -0.984539E-05  0.198450E-12
  0.251000E+03  0.500000E+00 -0.717052E-05 -0.626990E-13
  0.253000E+03  0.500000E+00 -0.105147E-04 -0.326880E-12
  0.255000E+03  0.500000E+00 -0.143082E-04  0.407854E-13
  0.257000E+03  0.500000E+00 -0.155873E-04 -0.234479E-13
  0.259000E+03  0.500000E+00 -0.162145E-04 -0.171145E-12
  0.261000E+03  0.500000E+00 -0.165370E-04 -0.329533E-12
  0.263000E+03  0.500000E+00 -0.167246E-04 -0.549561E-12
  0.265000E+03  0.500000E+00 -0.168424E-04 -0.773293E-14
  0.267000E+03  0.500000E+00 -0.169208E-04  0.392797E-12
  0.269000E+03  0.500000E+00 -0.169753E-04  0.353901E-12
  0.271000E+03  0.500000E+00 -0.170144E-04  0.690064E-13
  0.273000E+03  0.500000E+00 -0.170432E-04 -0.213938E-12
  0.275000E+03  0.500000E+00 -0.170647E-04  0.581331E-13
  0.277000E+03  0.500000E+00 -0.170809E-04  0.604657E-12
  0.279000E+03  0.500000E+00 -0.170932E-04  0.670722E-12
  0.281000E+03  0.500000E+00 -0.171025E-04  0.762491E-12
  0.283000E+03  0.500000E+00 -0.171093E-04  0.992712E-12
  0.285000E+03  0.500000E+00 -0.171141E-04  0.979531E-12
  0.287000E+03  0.500000E+00 -0.171172E-04  0.493832E-12
  0.289000E+03  0.500000E+00 -0.171188E-04  0.162408E-12
  0.291000E+03  0.500000E+00 -0.171190E-04  0.389748E-12
  0.293000E+03  0.500000E+00 -0.171180E-04  0.480820E-12
  0.295000E+03  0.500000E+00 -0.171158E-04  0.255613E-12
  0.297000E+03  0.500000E+00 -0.171124E-04 -0.140181E-12
  0.299000E+03  0.500000E+00 -0.171077E-04  0.272160E-13
  0.301000E+03  0.500000E+00 -0.171018E-04 -0.511442E-13
  0.303000E+03  0.500000E+00 -0.170945E-04 -0.525167E-12
  0.305000E+03  0.500000E+00 -0.170858E-04 -0.583293E-12
  0.307000E+03  0.500000E+00 -0.170755E-04 -0.920339E-13
  0.309000E+03  0.500000E+00 -0.170635E-04  0.412643E-12
  0.311000E+03  0.500000E+00 -0.170496E-04  0.131552E-12
  0.313000E+03  0.500000E+00 -0.170336E-04 -0.434784E-12
  0.315000E+03  0.500000E+00 -0.170152E-04 -0.511094E-12
  0.317000E+03  0.500000E+00 -0.169941E-04 -0.170023E-12
  0.319000E+03  0.500000E+00 -0.169701E-04  0.134611E-12
  0.321000E+03  0.500000E+00 -0.169428E-04  0.358847E-12
  0.323000E+03  0.500000E+00 -0.169118E-04  0.505420E-12
  0.325000E+03  0.500000E+00 -0.168765E-04  0.549262E-12
  0.327000E+03  0.500000E+00 -0.168365E-04  0.420652E-12
  0.329000E+03  0.500000E+00 -0.167911E-04  0.306541E-12
  0.331000E+03  0.500000E+00 -0.167397E-04  0.292056E-12
  0.333000E+03  0.500000E+00 -0.166816E-04  0.354916E-12
  0.335000E+03  0.500000E+00 -0.166158E-04  0.406458E-12
  0.337000E+03  0.500000E+00 -0.165415E-04  0.351387E-12
  0.339000E+03  0.500000E+00 -0.164575E-04  0.138847E-12
  0.341000E+03  0.500000E+00 -0.163628E-04 -0.857345E-13
  0.343000E+03  0.500000E+00 -0.162559E-04 -0.101359E-12
  0.345000E+03  0.500000E+00 -0.161355E-04  0.274540E-12
  0.347000E+03  0.500000E+00 -0.159999E-04  0.464561E-12
  0.349000E+03  0.500000E+00 -0.158475E-04  0.118165E-12
  0.351000E+03  0.500000E+00 -0.156762E-04  0.114186E-12
  0.353000E+03  0.500000E+00 -0.154841E-04 -0.873653E-13
  0.355000E+03  0.500000E+00 -0.152689E-04 -0.327076E-12
  0.357000E+03  0.500000E+00 -0.150282E-04  0.344383E-13
  0.359000E+03  0.500000E+00 -0.147595E-04  0.183946E-12
  0.361000E+03  0.500000E+00 -0.144601E-04  0.160552E-12
  0.363000E+03  0.500000E+00 -0.141272E-04  0.221072E-12
  0.365000E+03  0.500000E+00 -0.137581E-04  0.249714E-12
  0.367000E+03  0.500000E+00 -0.133498E-04  0.233577E-12
  0.369000E+03  0.500000E+00 -0.128996E-04  0.401121E-12
  0.371000E+03  0.500000E+00 -0.124048E-04  0.609050E-12
  0.373000E+03  0.500000E+00 -0.118631E-04  0.537305E-12
  0.375000E+03  0.500000E+00 -0.112722E-04  0.296321E-12
  0.377000E+03  0.500000E+00 -0.106307E-04  0.175331E-12
  0.379000E+03  0.500000E+00 -0.993730E-05  0.536989E-13
  0.381000E+03  0.500000E+00 -0.919178E-05 -0.269295E-12
  0.383000E+03  0.500000E+00 -0.839458E-05 -0.483696E-12
  0.385000E+03  0.500000E+00 -0.754707E-05 -0.549429E-12
  0.387000E+03  0.500000E+00 -0.665167E-05 -0.579330E-12
  0.389000E+03  0.500000E+00 -0.571185E-05 -0.331510E-12
  0.391000E+03  0.500000E+00 -0.473216E-05 -0.242958E-12
  0.393000E+03  0.500000E+00 -0.371817E-05 -0.291822E-12
  0.395000E+03  0.500000E+00 -0.267642E-05 -0.350830E-12
  0.397000E+03  0.500000E+00 -0.161421E-05 -0.104783E-12
  0.399000E+03  0.500000E+00 -0.539476E-06 -0.297659E-12
