 title="xz fracture velocity field tdays=      1.000"
variables="x","z","vx","vz"
zone i=          0
