variables="x","z","Pe_x","Pe_z","Co_x","Co_z"
zone i=    25, j=   200,T="   0.100000E+01 days"
  0.1000000E+01  0.1000000E+01  0.3284946E+02 -0.1971290E+02  0.4638695E+00 -0.2783673E+00
  0.1000000E+01  0.3000000E+01  0.2627900E+03 -0.3142751E+03  0.3710877E+01 -0.4437901E+01
  0.1000000E+01  0.5000000E+01  0.2628321E+03 -0.6477998E+03  0.3711470E+01 -0.9147628E+01
  0.1000000E+01  0.7000000E+01  0.2629475E+03 -0.9804260E+03  0.3713101E+01 -0.1384466E+02
  0.1000000E+01  0.9000000E+01  0.2631365E+03 -0.1313306E+04  0.3715769E+01 -0.1854529E+02
  0.1000000E+01  0.1100000E+02  0.2633991E+03 -0.1646467E+04  0.3719478E+01 -0.2324988E+02
  0.1000000E+01  0.1300000E+02  0.2637354E+03 -0.1979918E+04  0.3724226E+01 -0.2795857E+02
  0.1000000E+01  0.1500000E+02  0.2641456E+03 -0.2313686E+04  0.3730018E+01 -0.3267172E+02
  0.1000000E+01  0.1700000E+02  0.2646298E+03 -0.2647884E+04  0.3736856E+01 -0.3739096E+02
  0.1000000E+01  0.1900000E+02  0.2651883E+03 -0.2982415E+04  0.3744743E+01 -0.4211489E+02
  0.1000000E+01  0.2100000E+02  0.2658215E+03 -0.3317183E+04  0.3753684E+01 -0.4684218E+02
  0.1000000E+01  0.2300000E+02  0.2665295E+03 -0.3652387E+04  0.3763682E+01 -0.5157561E+02
  0.1000000E+01  0.2500000E+02  0.2673129E+03 -0.3988082E+04  0.3774744E+01 -0.5631599E+02
  0.1000000E+01  0.2700000E+02  0.2681719E+03 -0.4324281E+04  0.3786874E+01 -0.6106348E+02
  0.1000000E+01  0.2900000E+02  0.2691070E+03 -0.4661046E+04  0.3800079E+01 -0.6581896E+02
  0.1000000E+01  0.3100000E+02  0.2701188E+03 -0.4998420E+04  0.3814366E+01 -0.7058305E+02
  0.1000000E+01  0.3300000E+02  0.2712077E+03 -0.5336454E+04  0.3829743E+01 -0.7535645E+02
  0.1000000E+01  0.3500000E+02  0.2723743E+03 -0.5675171E+04  0.3846217E+01 -0.8013949E+02
  0.1000000E+01  0.3700000E+02  0.2736192E+03 -0.6014671E+04  0.3863796E+01 -0.8493360E+02
  0.1000000E+01  0.3900000E+02  0.2749430E+03 -0.6355025E+04  0.3882490E+01 -0.8973976E+02
  0.1000000E+01  0.4100000E+02  0.2763465E+03 -0.6696256E+04  0.3902309E+01 -0.9455831E+02
  0.1000000E+01  0.4300000E+02  0.2778304E+03 -0.7038433E+04  0.3923263E+01 -0.9939022E+02
  0.1000000E+01  0.4500000E+02  0.2793954E+03 -0.7381602E+04  0.3945362E+01 -0.1042361E+03
  0.1000000E+01  0.4700000E+02  0.2810423E+03 -0.7725803E+04  0.3968618E+01 -0.1090966E+03
  0.1000000E+01  0.4900000E+02  0.2827720E+03 -0.8071066E+04  0.3993044E+01 -0.1139721E+03
  0.3000000E+01  0.1000000E+01  0.2615611E+03 -0.1401750E+03  0.3693523E+01 -0.1979421E+01
  0.3000000E+01  0.3000000E+01  0.2615878E+03 -0.9727046E+02  0.3693900E+01 -0.1373563E+01
  0.3000000E+01  0.5000000E+01  0.2616003E+03 -0.6147552E+01  0.3694076E+01 -0.8681002E-01
  0.3000000E+01  0.7000000E+01  0.2615932E+03  0.8570678E+02  0.3693977E+01  0.1210272E+01
  0.3000000E+01  0.9000000E+01  0.2615666E+03  0.1775602E+03  0.3693600E+01  0.2507341E+01
  0.3000000E+01  0.1100000E+02  0.2615203E+03  0.2694831E+03  0.3692946E+01  0.3805390E+01
  0.3000000E+01  0.1300000E+02  0.2614543E+03  0.3615912E+03  0.3692015E+01  0.5106056E+01
  0.3000000E+01  0.1500000E+02  0.2613685E+03  0.4540010E+03  0.3690803E+01  0.6410981E+01
  0.3000000E+01  0.1700000E+02  0.2612628E+03  0.5468572E+03  0.3689311E+01  0.7722209E+01
  0.3000000E+01  0.1900000E+02  0.2611371E+03  0.6402205E+03  0.3687536E+01  0.9040599E+01
  0.3000000E+01  0.2100000E+02  0.2609912E+03  0.7341182E+03  0.3685475E+01  0.1036654E+02
  0.3000000E+01  0.2300000E+02  0.2608249E+03  0.8286966E+03  0.3683127E+01  0.1170208E+02
  0.3000000E+01  0.2500000E+02  0.2606379E+03  0.9240549E+03  0.3680487E+01  0.1304864E+02
  0.3000000E+01  0.2700000E+02  0.2604301E+03  0.1020250E+04  0.3677552E+01  0.1440702E+02
  0.3000000E+01  0.2900000E+02  0.2602011E+03  0.1117360E+04  0.3674319E+01  0.1577832E+02
  0.3000000E+01  0.3100000E+02  0.2599508E+03  0.1215452E+04  0.3670783E+01  0.1716349E+02
  0.3000000E+01  0.3300000E+02  0.2596787E+03  0.1314596E+04  0.3666941E+01  0.1856351E+02
  0.3000000E+01  0.3500000E+02  0.2593845E+03  0.1414842E+04  0.3662787E+01  0.1997908E+02
  0.3000000E+01  0.3700000E+02  0.2590679E+03  0.1516271E+04  0.3658316E+01  0.2141137E+02
  0.3000000E+01  0.3900000E+02  0.2587284E+03  0.1618954E+04  0.3653522E+01  0.2286137E+02
  0.3000000E+01  0.4100000E+02  0.2583657E+03  0.1722953E+04  0.3648401E+01  0.2432993E+02
  0.3000000E+01  0.4300000E+02  0.2579794E+03  0.1828353E+04  0.3642945E+01  0.2581831E+02
  0.3000000E+01  0.4500000E+02  0.2575689E+03  0.1935230E+04  0.3637148E+01  0.2732752E+02
  0.3000000E+01  0.4700000E+02  0.2571337E+03  0.2043649E+04  0.3631003E+01  0.2885852E+02
  0.3000000E+01  0.4900000E+02  0.2566734E+03  0.2153671E+04  0.3624504E+01  0.3041214E+02
  0.5000000E+01  0.1000000E+01  0.2597177E+03  0.3817276E+02  0.3667493E+01  0.5390403E+00
  0.5000000E+01  0.3000000E+01  0.2597103E+03  0.2773234E+02  0.3667388E+01  0.3916103E+00
  0.5000000E+01  0.5000000E+01  0.2597065E+03  0.4695363E+01  0.3667334E+01  0.6630356E-01
  0.5000000E+01  0.7000000E+01  0.2597076E+03 -0.1869673E+02  0.3667349E+01 -0.2640178E+00
  0.5000000E+01  0.9000000E+01  0.2597137E+03 -0.4212466E+02  0.3667435E+01 -0.5948453E+00
  0.5000000E+01  0.1100000E+02  0.2597247E+03 -0.6556720E+02  0.3667591E+01 -0.9258791E+00
  0.5000000E+01  0.1300000E+02  0.2597408E+03 -0.8910329E+02  0.3667819E+01 -0.1258234E+01
  0.5000000E+01  0.1500000E+02  0.2597620E+03 -0.1127861E+03  0.3668118E+01 -0.1592660E+01
  0.5000000E+01  0.1700000E+02  0.2597883E+03 -0.1366397E+03  0.3668489E+01 -0.1929498E+01
  0.5000000E+01  0.1900000E+02  0.2598198E+03 -0.1607443E+03  0.3668933E+01 -0.2269882E+01
  0.5000000E+01  0.2100000E+02  0.2598565E+03 -0.1851384E+03  0.3669452E+01 -0.2614352E+01
  0.5000000E+01  0.2300000E+02  0.2598985E+03 -0.2098195E+03  0.3670045E+01 -0.2962876E+01
  0.5000000E+01  0.2500000E+02  0.2599459E+03 -0.2348439E+03  0.3670715E+01 -0.3316247E+01
  0.5000000E+01  0.2700000E+02  0.2599989E+03 -0.2602472E+03  0.3671463E+01 -0.3674969E+01
  0.5000000E+01  0.2900000E+02  0.2600574E+03 -0.2860663E+03  0.3672289E+01 -0.4039563E+01
  0.5000000E+01  0.3100000E+02  0.2601217E+03 -0.3123445E+03  0.3673197E+01 -0.4410639E+01
  0.5000000E+01  0.3300000E+02  0.2601918E+03 -0.3391261E+03  0.3674187E+01 -0.4788824E+01
  0.5000000E+01  0.3500000E+02  0.2602679E+03 -0.3664479E+03  0.3675262E+01 -0.5174637E+01
  0.5000000E+01  0.3700000E+02  0.2603501E+03 -0.3943344E+03  0.3676423E+01 -0.5568424E+01
  0.5000000E+01  0.3900000E+02  0.2604387E+03 -0.4228117E+03  0.3677673E+01 -0.5970553E+01
  0.5000000E+01  0.4100000E+02  0.2605336E+03 -0.4519312E+03  0.3679014E+01 -0.6381753E+01
  0.5000000E+01  0.4300000E+02  0.2606352E+03 -0.4817440E+03  0.3680449E+01 -0.6802742E+01
  0.5000000E+01  0.4500000E+02  0.2607437E+03 -0.5122858E+03  0.3681980E+01 -0.7234025E+01
  0.5000000E+01  0.4700000E+02  0.2608592E+03 -0.5435877E+03  0.3683611E+01 -0.7676040E+01
  0.5000000E+01  0.4900000E+02  0.2609819E+03 -0.5756812E+03  0.3685344E+01 -0.8129236E+01
  0.7000000E+01  0.1000000E+01  0.2601832E+03 -0.1037190E+02  0.3674065E+01 -0.1464623E+00
  0.7000000E+01  0.3000000E+01  0.2601852E+03 -0.7990529E+01  0.3674094E+01 -0.1128348E+00
  0.7000000E+01  0.5000000E+01  0.2601864E+03 -0.1987278E+01  0.3674111E+01 -0.2806249E-01
  0.7000000E+01  0.7000000E+01  0.2601863E+03  0.3950081E+01  0.3674109E+01  0.5577937E-01
  0.7000000E+01  0.9000000E+01  0.2601850E+03  0.9919330E+01  0.3674091E+01  0.1400716E+00
  0.7000000E+01  0.1100000E+02  0.2601824E+03  0.1589487E+02  0.3674054E+01  0.2244525E+00
  0.7000000E+01  0.1300000E+02  0.2601785E+03  0.2191793E+02  0.3673999E+01  0.3095047E+00
  0.7000000E+01  0.1500000E+02  0.2601733E+03  0.2800411E+02  0.3673926E+01  0.3954481E+00
  0.7000000E+01  0.1700000E+02  0.2601668E+03  0.3411789E+02  0.3673834E+01  0.4817811E+00
  0.7000000E+01  0.1900000E+02  0.2601589E+03  0.4032916E+02  0.3673723E+01  0.5694909E+00
  0.7000000E+01  0.2100000E+02  0.2601497E+03  0.4669804E+02  0.3673593E+01  0.6594263E+00
  0.7000000E+01  0.2300000E+02  0.2601391E+03  0.5316611E+02  0.3673443E+01  0.7507624E+00
  0.7000000E+01  0.2500000E+02  0.2601271E+03  0.5974982E+02  0.3673273E+01  0.8437314E+00
  0.7000000E+01  0.2700000E+02  0.2601136E+03  0.6646877E+02  0.3673082E+01  0.9386103E+00
  0.7000000E+01  0.2900000E+02  0.2600986E+03  0.7333390E+02  0.3672871E+01  0.1035553E+01
  0.7000000E+01  0.3100000E+02  0.2600821E+03  0.8036522E+02  0.3672637E+01  0.1134843E+01
  0.7000000E+01  0.3300000E+02  0.2600640E+03  0.8758268E+02  0.3672382E+01  0.1236761E+01
  0.7000000E+01  0.3500000E+02  0.2600443E+03  0.9501316E+02  0.3672104E+01  0.1341688E+01
  0.7000000E+01  0.3700000E+02  0.2600229E+03  0.1026565E+03  0.3671802E+01  0.1449620E+01
  0.7000000E+01  0.3900000E+02  0.2599998E+03  0.1105214E+03  0.3671476E+01  0.1560681E+01
  0.7000000E+01  0.4100000E+02  0.2599749E+03  0.1186359E+03  0.3671124E+01  0.1675266E+01
  0.7000000E+01  0.4300000E+02  0.2599482E+03  0.1270157E+03  0.3670747E+01  0.1793598E+01
  0.7000000E+01  0.4500000E+02  0.2599195E+03  0.1356729E+03  0.3670342E+01  0.1915846E+01
  0.7000000E+01  0.4700000E+02  0.2598889E+03  0.1446275E+03  0.3669909E+01  0.2042295E+01
  0.7000000E+01  0.4900000E+02  0.2598562E+03  0.1539110E+03  0.3669447E+01  0.2173389E+01
  0.9000000E+01  0.1000000E+01  0.2600696E+03  0.2826426E+01  0.3672461E+01  0.3991217E-01
  0.9000000E+01  0.3000000E+01  0.2600690E+03  0.2273210E+01  0.3672453E+01  0.3210016E-01
  0.9000000E+01  0.5000000E+01  0.2600687E+03  0.6911929E+00  0.3672448E+01  0.9760385E-02
  0.9000000E+01  0.7000000E+01  0.2600686E+03 -0.7608938E+00  0.3672447E+01 -0.1074464E-01
  0.9000000E+01  0.9000000E+01  0.2600689E+03 -0.2219459E+01  0.3672451E+01 -0.3134114E-01
  0.9000000E+01  0.1100000E+02  0.2600695E+03 -0.3723876E+01  0.3672459E+01 -0.5258512E-01
  0.9000000E+01  0.1300000E+02  0.2600704E+03 -0.5269477E+01  0.3672472E+01 -0.7441066E-01
  0.9000000E+01  0.1500000E+02  0.2600716E+03 -0.6849270E+01  0.3672490E+01 -0.9671903E-01
  0.9000000E+01  0.1700000E+02  0.2600732E+03 -0.8446452E+01  0.3672512E+01 -0.1192729E+00
  0.9000000E+01  0.1900000E+02  0.2600752E+03 -0.1006834E+02  0.3672540E+01 -0.1421758E+00
  0.9000000E+01  0.2100000E+02  0.2600775E+03 -0.1174175E+02  0.3672572E+01 -0.1658061E+00
  0.9000000E+01  0.2300000E+02  0.2600801E+03 -0.1346003E+02  0.3672610E+01 -0.1900701E+00
  0.9000000E+01  0.2500000E+02  0.2600832E+03 -0.1521905E+02  0.3672653E+01 -0.2149093E+00
  0.9000000E+01  0.2700000E+02  0.2600866E+03 -0.1701840E+02  0.3672702E+01 -0.2403181E+00
  0.9000000E+01  0.2900000E+02  0.2600905E+03 -0.1885905E+02  0.3672756E+01 -0.2663099E+00
  0.9000000E+01  0.3100000E+02  0.2600947E+03 -0.2074814E+02  0.3672816E+01 -0.2929860E+00
  0.9000000E+01  0.3300000E+02  0.2600994E+03 -0.2269128E+02  0.3672882E+01 -0.3204252E+00
  0.9000000E+01  0.3500000E+02  0.2601045E+03 -0.2469878E+02  0.3672954E+01 -0.3487733E+00
  0.9000000E+01  0.3700000E+02  0.2601100E+03 -0.2677769E+02  0.3673032E+01 -0.3781297E+00
  0.9000000E+01  0.3900000E+02  0.2601161E+03 -0.2893915E+02  0.3673117E+01 -0.4086518E+00
  0.9000000E+01  0.4100000E+02  0.2601226E+03 -0.3118105E+02  0.3673210E+01 -0.4403098E+00
  0.9000000E+01  0.4300000E+02  0.2601296E+03 -0.3350346E+02  0.3673309E+01 -0.4731048E+00
  0.9000000E+01  0.4500000E+02  0.2601372E+03 -0.3591303E+02  0.3673416E+01 -0.5071305E+00
  0.9000000E+01  0.4700000E+02  0.2601453E+03 -0.3842399E+02  0.3673531E+01 -0.5425879E+00
  0.9000000E+01  0.4900000E+02  0.2601540E+03 -0.4106403E+02  0.3673654E+01 -0.5798681E+00
  0.1100000E+02  0.1000000E+01  0.2601058E+03 -0.7783574E+00  0.3672973E+01 -0.1099124E-01
  0.1100000E+02  0.3000000E+01  0.2601060E+03 -0.4771844E+00  0.3672975E+01 -0.6738355E-02
  0.1100000E+02  0.5000000E+01  0.2601061E+03 -0.2437047E+00  0.3672977E+01 -0.3441372E-02
  0.1100000E+02  0.7000000E+01  0.2601061E+03  0.8620770E-01  0.3672977E+01  0.1217345E-02
  0.1100000E+02  0.9000000E+01  0.2601061E+03  0.4077529E+00  0.3672977E+01  0.5757908E-02
  0.1100000E+02  0.1100000E+02  0.2601060E+03  0.7944495E+00  0.3672975E+01  0.1121848E-01
  0.1100000E+02  0.1300000E+02  0.2601058E+03  0.1208035E+01  0.3672972E+01  0.1705874E-01
  0.1100000E+02  0.1500000E+02  0.2601055E+03  0.1632736E+01  0.3672968E+01  0.2305598E-01
  0.1100000E+02  0.1700000E+02  0.2601051E+03  0.2086549E+01  0.3672962E+01  0.2946431E-01
  0.1100000E+02  0.1900000E+02  0.2601046E+03  0.2541301E+01  0.3672955E+01  0.3588590E-01
  0.1100000E+02  0.2100000E+02  0.2601040E+03  0.2979128E+01  0.3672947E+01  0.4206848E-01
  0.1100000E+02  0.2300000E+02  0.2601033E+03  0.3437572E+01  0.3672938E+01  0.4854220E-01
  0.1100000E+02  0.2500000E+02  0.2601026E+03  0.3913706E+01  0.3672927E+01  0.5526572E-01
  0.1100000E+02  0.2700000E+02  0.2601017E+03  0.4401200E+01  0.3672915E+01  0.6214966E-01
  0.1100000E+02  0.2900000E+02  0.2601007E+03  0.4899994E+01  0.3672901E+01  0.6919316E-01
  0.1100000E+02  0.3100000E+02  0.2600997E+03  0.5411926E+01  0.3672886E+01  0.7642219E-01
  0.1100000E+02  0.3300000E+02  0.2600985E+03  0.5939345E+01  0.3672869E+01  0.8386991E-01
  0.1100000E+02  0.3500000E+02  0.2600972E+03  0.6477608E+01  0.3672851E+01  0.9147076E-01
  0.1100000E+02  0.3700000E+02  0.2600957E+03  0.7037966E+01  0.3672831E+01  0.9938362E-01
  0.1100000E+02  0.3900000E+02  0.2600942E+03  0.7632275E+01  0.3672809E+01  0.1077759E+00
  0.1100000E+02  0.4100000E+02  0.2600925E+03  0.8244161E+01  0.3672785E+01  0.1164164E+00
  0.1100000E+02  0.4300000E+02  0.2600907E+03  0.8872142E+01  0.3672759E+01  0.1252842E+00
  0.1100000E+02  0.4500000E+02  0.2600887E+03  0.9526334E+01  0.3672730E+01  0.1345220E+00
  0.1100000E+02  0.4700000E+02  0.2600865E+03  0.1020737E+02  0.3672700E+01  0.1441390E+00
  0.1100000E+02  0.4900000E+02  0.2600842E+03  0.1091877E+02  0.3672667E+01  0.1541847E+00
  0.1300000E+02  0.1000000E+01  0.2600994E+03  0.2350218E+00  0.3672882E+01  0.3318759E-02
  0.1300000E+02  0.3000000E+01  0.2600993E+03  0.1536820E+00  0.3672881E+01  0.2170154E-02
  0.1300000E+02  0.5000000E+01  0.2600993E+03  0.1595164E+00  0.3672881E+01  0.2252543E-02
  0.1300000E+02  0.7000000E+01  0.2600993E+03  0.4833005E-01  0.3672880E+01  0.6824721E-03
  0.1300000E+02  0.9000000E+01  0.2600993E+03 -0.5608087E-01  0.3672881E+01 -0.7919220E-03
  0.1300000E+02  0.1100000E+02  0.2600993E+03 -0.1820889E+00  0.3672881E+01 -0.2571290E-02
  0.1300000E+02  0.1300000E+02  0.2600994E+03 -0.3017960E+00  0.3672882E+01 -0.4261682E-02
  0.1300000E+02  0.1500000E+02  0.2600995E+03 -0.4113385E+00  0.3672883E+01 -0.5808541E-02
  0.1300000E+02  0.1700000E+02  0.2600996E+03 -0.5233163E+00  0.3672884E+01 -0.7389787E-02
  0.1300000E+02  0.1900000E+02  0.2600997E+03 -0.6414687E+00  0.3672886E+01 -0.9058226E-02
  0.1300000E+02  0.2100000E+02  0.2600998E+03 -0.7497852E+00  0.3672888E+01 -0.1058777E-01
  0.1300000E+02  0.2300000E+02  0.2601000E+03 -0.8536006E+00  0.3672890E+01 -0.1205375E-01
  0.1300000E+02  0.2500000E+02  0.2601001E+03 -0.9602572E+00  0.3672893E+01 -0.1355986E-01
  0.1300000E+02  0.2700000E+02  0.2601004E+03 -0.1076516E+01  0.3672896E+01 -0.1520156E-01
  0.1300000E+02  0.2900000E+02  0.2601006E+03 -0.1203321E+01  0.3672899E+01 -0.1699218E-01
  0.1300000E+02  0.3100000E+02  0.2601008E+03 -0.1337475E+01  0.3672902E+01 -0.1888658E-01
  0.1300000E+02  0.3300000E+02  0.2601011E+03 -0.1481254E+01  0.3672907E+01 -0.2091689E-01
  0.1300000E+02  0.3500000E+02  0.2601014E+03 -0.1629115E+01  0.3672911E+01 -0.2300484E-01
  0.1300000E+02  0.3700000E+02  0.2601018E+03 -0.1783762E+01  0.3672916E+01 -0.2518862E-01
  0.1300000E+02  0.3900000E+02  0.2601022E+03 -0.1953364E+01  0.3672922E+01 -0.2758360E-01
  0.1300000E+02  0.4100000E+02  0.2601026E+03 -0.2131058E+01  0.3672928E+01 -0.3009282E-01
  0.1300000E+02  0.4300000E+02  0.2601031E+03 -0.2315156E+01  0.3672934E+01 -0.3269248E-01
  0.1300000E+02  0.4500000E+02  0.2601036E+03 -0.2517793E+01  0.3672942E+01 -0.3555393E-01
  0.1300000E+02  0.4700000E+02  0.2601042E+03 -0.2731835E+01  0.3672950E+01 -0.3857643E-01
  0.1300000E+02  0.4900000E+02  0.2601048E+03 -0.2939244E+01  0.3672959E+01 -0.4150527E-01
  0.1500000E+02  0.1000000E+01  0.2600964E+03 -0.9077557E-01  0.3672840E+01 -0.1281848E-02
  0.1500000E+02  0.3000000E+01  0.2600964E+03 -0.4374730E+00  0.3672840E+01 -0.6177587E-02
  0.1500000E+02  0.5000000E+01  0.2600964E+03 -0.5075211E-01  0.3672840E+01 -0.7166741E-03
  0.1500000E+02  0.7000000E+01  0.2600964E+03  0.1142450E-01  0.3672840E+01  0.1613262E-03
  0.1500000E+02  0.9000000E+01  0.2600964E+03  0.9014086E-01  0.3672840E+01  0.1272885E-02
  0.1500000E+02  0.1100000E+02  0.2600964E+03  0.1374834E+00  0.3672840E+01  0.1941413E-02
  0.1500000E+02  0.1300000E+02  0.2600964E+03  0.1632859E+00  0.3672840E+01  0.2305772E-02
  0.1500000E+02  0.1500000E+02  0.2600964E+03  0.1778211E+00  0.3672839E+01  0.2511025E-02
  0.1500000E+02  0.1700000E+02  0.2600964E+03  0.1728324E+00  0.3672839E+01  0.2440578E-02
  0.1500000E+02  0.1900000E+02  0.2600963E+03  0.1762899E+00  0.3672839E+01  0.2489402E-02
  0.1500000E+02  0.2100000E+02  0.2600963E+03  0.1965699E+00  0.3672839E+01  0.2775778E-02
  0.1500000E+02  0.2300000E+02  0.2600963E+03  0.2050860E+00  0.3672838E+01  0.2896034E-02
  0.1500000E+02  0.2500000E+02  0.2600963E+03  0.2098157E+00  0.3672838E+01  0.2962823E-02
  0.1500000E+02  0.2700000E+02  0.2600962E+03  0.2273359E+00  0.3672837E+01  0.3210226E-02
  0.1500000E+02  0.2900000E+02  0.2600962E+03  0.2580951E+00  0.3672836E+01  0.3644580E-02
  0.1500000E+02  0.3100000E+02  0.2600961E+03  0.2942777E+00  0.3672835E+01  0.4155517E-02
  0.1500000E+02  0.3300000E+02  0.2600960E+03  0.3330558E+00  0.3672834E+01  0.4703105E-02
  0.1500000E+02  0.3500000E+02  0.2600959E+03  0.3774240E+00  0.3672833E+01  0.5329631E-02
  0.1500000E+02  0.3700000E+02  0.2600959E+03  0.4206528E+00  0.3672832E+01  0.5940067E-02
  0.1500000E+02  0.3900000E+02  0.2600958E+03  0.4634588E+00  0.3672831E+01  0.6544535E-02
  0.1500000E+02  0.4100000E+02  0.2600957E+03  0.5174289E+00  0.3672829E+01  0.7306650E-02
  0.1500000E+02  0.4300000E+02  0.2600955E+03  0.5788572E+00  0.3672827E+01  0.8174084E-02
  0.1500000E+02  0.4500000E+02  0.2600954E+03  0.6539499E+00  0.3672826E+01  0.9234473E-02
  0.1500000E+02  0.4700000E+02  0.2600952E+03  0.7440831E+00  0.3672823E+01  0.1050725E-01
  0.1500000E+02  0.4900000E+02  0.2600951E+03  0.8352980E+00  0.3672821E+01  0.1179530E-01
  0.1700000E+02  0.1000000E+01  0.2600938E+03  0.2774082E-01  0.3672803E+01  0.3917301E-03
  0.1700000E+02  0.3000000E+01  0.2600939E+03  0.1634478E+00  0.3672804E+01  0.2308059E-02
  0.1700000E+02  0.5000000E+01  0.2600939E+03 -0.8498252E-01  0.3672805E+01 -0.1200044E-02
  0.1700000E+02  0.7000000E+01  0.2600939E+03 -0.6571944E-01  0.3672805E+01 -0.9280288E-03
  0.1700000E+02  0.9000000E+01  0.2600939E+03 -0.7149779E-01  0.3672804E+01 -0.1009625E-02
  0.1700000E+02  0.1100000E+02  0.2600939E+03 -0.4538286E-01  0.3672804E+01 -0.6408546E-03
  0.1700000E+02  0.1300000E+02  0.2600939E+03 -0.2151382E-01  0.3672804E+01 -0.3037982E-03
  0.1700000E+02  0.1500000E+02  0.2600939E+03 -0.6621815E-02  0.3672804E+01 -0.9350712E-04
  0.1700000E+02  0.1700000E+02  0.2600938E+03 -0.3218532E-02  0.3672804E+01 -0.4544912E-04
  0.1700000E+02  0.1900000E+02  0.2600938E+03 -0.3975769E-03  0.3672804E+01 -0.5614212E-05
  0.1700000E+02  0.2100000E+02  0.2600938E+03 -0.2020163E-02  0.3672804E+01 -0.2852686E-04
  0.1700000E+02  0.2300000E+02  0.2600938E+03 -0.1012919E-01  0.3672804E+01 -0.1430351E-03
  0.1700000E+02  0.2500000E+02  0.2600939E+03 -0.1836106E-01  0.3672804E+01 -0.2592779E-03
  0.1700000E+02  0.2700000E+02  0.2600939E+03 -0.3305959E-01  0.3672804E+01 -0.4668368E-03
  0.1700000E+02  0.2900000E+02  0.2600939E+03 -0.5403035E-01  0.3672804E+01 -0.7629664E-03
  0.1700000E+02  0.3100000E+02  0.2600939E+03 -0.7808509E-01  0.3672805E+01 -0.1102645E-02
  0.1700000E+02  0.3300000E+02  0.2600939E+03 -0.9579713E-01  0.3672805E+01 -0.1352758E-02
  0.1700000E+02  0.3500000E+02  0.2600939E+03 -0.1157213E+00  0.3672805E+01 -0.1634109E-02
  0.1700000E+02  0.3700000E+02  0.2600940E+03 -0.1322368E+00  0.3672805E+01 -0.1867325E-02
  0.1700000E+02  0.3900000E+02  0.2600940E+03 -0.1353886E+00  0.3672806E+01 -0.1911832E-02
  0.1700000E+02  0.4100000E+02  0.2600940E+03 -0.1442739E+00  0.3672806E+01 -0.2037301E-02
  0.1700000E+02  0.4300000E+02  0.2600941E+03 -0.1562778E+00  0.3672807E+01 -0.2206810E-02
  0.1700000E+02  0.4500000E+02  0.2600941E+03 -0.1657173E+00  0.3672807E+01 -0.2340105E-02
  0.1700000E+02  0.4700000E+02  0.2600941E+03 -0.1848330E+00  0.3672808E+01 -0.2610041E-02
  0.1700000E+02  0.4900000E+02  0.2600942E+03 -0.2177381E+00  0.3672808E+01 -0.3074695E-02
  0.1900000E+02  0.1000000E+01  0.2600964E+03  0.9337656E-02  0.3672840E+01  0.1318577E-03
  0.1900000E+02  0.3000000E+01  0.2600964E+03  0.5577978E+00  0.3672840E+01  0.7876703E-02
  0.1900000E+02  0.5000000E+01  0.2600964E+03  0.4995254E-01  0.3672840E+01  0.7053833E-03
  0.1900000E+02  0.7000000E+01  0.2600964E+03  0.9331339E-02  0.3672840E+01  0.1317685E-03
  0.1900000E+02  0.9000000E+01  0.2600964E+03 -0.2978672E-01  0.3672840E+01 -0.4206203E-03
  0.1900000E+02  0.1100000E+02  0.2600964E+03 -0.6530880E-01  0.3672840E+01 -0.9222302E-03
  0.1900000E+02  0.1300000E+02  0.2600965E+03 -0.8196037E-01  0.3672841E+01 -0.1157368E-02
  0.1900000E+02  0.1500000E+02  0.2600965E+03 -0.8459687E-01  0.3672841E+01 -0.1194598E-02
  0.1900000E+02  0.1700000E+02  0.2600965E+03 -0.4871454E-01  0.3672841E+01 -0.6879015E-03
  0.1900000E+02  0.1900000E+02  0.2600965E+03 -0.1988203E-01  0.3672841E+01 -0.2807556E-03
  0.1900000E+02  0.2100000E+02  0.2600965E+03 -0.1172391E-01  0.3672841E+01 -0.1655542E-03
  0.1900000E+02  0.2300000E+02  0.2600965E+03  0.1476479E-01  0.3672841E+01  0.2084946E-03
  0.1900000E+02  0.2500000E+02  0.2600965E+03  0.4262692E-01  0.3672841E+01  0.6019378E-03
  0.1900000E+02  0.2700000E+02  0.2600965E+03  0.6132998E-01  0.3672841E+01  0.8660450E-03
  0.1900000E+02  0.2900000E+02  0.2600964E+03  0.7306159E-01  0.3672840E+01  0.1031708E-02
  0.1900000E+02  0.3100000E+02  0.2600964E+03  0.8732417E-01  0.3672840E+01  0.1233111E-02
  0.1900000E+02  0.3300000E+02  0.2600965E+03  0.9496337E-01  0.3672841E+01  0.1340984E-02
  0.1900000E+02  0.3500000E+02  0.2600965E+03  0.1000331E+00  0.3672841E+01  0.1412574E-02
  0.1900000E+02  0.3700000E+02  0.2600965E+03  0.1090453E+00  0.3672841E+01  0.1539836E-02
  0.1900000E+02  0.3900000E+02  0.2600965E+03  0.1089161E+00  0.3672841E+01  0.1538011E-02
  0.1900000E+02  0.4100000E+02  0.2600965E+03  0.1059059E+00  0.3672841E+01  0.1495505E-02
  0.1900000E+02  0.4300000E+02  0.2600965E+03  0.1015614E+00  0.3672841E+01  0.1434156E-02
  0.1900000E+02  0.4500000E+02  0.2600965E+03  0.8335043E-01  0.3672841E+01  0.1176997E-02
  0.1900000E+02  0.4700000E+02  0.2600965E+03  0.5880588E-01  0.3672841E+01  0.8304021E-03
  0.1900000E+02  0.4900000E+02  0.2600965E+03  0.3951669E-01  0.3672841E+01  0.5580179E-03
  0.2100000E+02  0.1000000E+01  0.2601005E+03 -0.2402273E-01  0.3672897E+01 -0.3392267E-03
  0.2100000E+02  0.3000000E+01  0.2601004E+03 -0.5966810E+00  0.3672897E+01 -0.8425775E-02
  0.2100000E+02  0.5000000E+01  0.2601004E+03  0.1062171E+00  0.3672896E+01  0.1499900E-02
  0.2100000E+02  0.7000000E+01  0.2601004E+03  0.8026036E-01  0.3672896E+01  0.1133362E-02
  0.2100000E+02  0.9000000E+01  0.2601004E+03  0.8287329E-01  0.3672896E+01  0.1170260E-02
  0.2100000E+02  0.1100000E+02  0.2601004E+03  0.6697275E-01  0.3672896E+01  0.9457270E-03
  0.2100000E+02  0.1300000E+02  0.2601004E+03  0.5269083E-01  0.3672896E+01  0.7440510E-03
  0.2100000E+02  0.1500000E+02  0.2601004E+03  0.3929676E-01  0.3672896E+01  0.5549124E-03
  0.2100000E+02  0.1700000E+02  0.2601004E+03  0.1605252E-01  0.3672896E+01  0.2266788E-03
  0.2100000E+02  0.1900000E+02  0.2601004E+03 -0.4608048E-02  0.3672896E+01 -0.6507057E-04
  0.2100000E+02  0.2100000E+02  0.2601004E+03 -0.1890140E-01  0.3672896E+01 -0.2669080E-03
  0.2100000E+02  0.2300000E+02  0.2601004E+03 -0.3953492E-01  0.3672896E+01 -0.5582753E-03
  0.2100000E+02  0.2500000E+02  0.2601004E+03 -0.5727174E-01  0.3672896E+01 -0.8087383E-03
  0.2100000E+02  0.2700000E+02  0.2601004E+03 -0.5789998E-01  0.3672896E+01 -0.8176098E-03
  0.2100000E+02  0.2900000E+02  0.2601004E+03 -0.4604998E-01  0.3672896E+01 -0.6502750E-03
  0.2100000E+02  0.3100000E+02  0.2601003E+03 -0.3545926E-01  0.3672896E+01 -0.5007227E-03
  0.2100000E+02  0.3300000E+02  0.2601003E+03 -0.2674124E-01  0.3672895E+01 -0.3776150E-03
  0.2100000E+02  0.3500000E+02  0.2601003E+03 -0.1337763E-01  0.3672895E+01 -0.1889064E-03
  0.2100000E+02  0.3700000E+02  0.2601003E+03 -0.1206071E-01  0.3672895E+01 -0.1703102E-03
  0.2100000E+02  0.3900000E+02  0.2601003E+03 -0.2296619E-01  0.3672894E+01 -0.3243072E-03
  0.2100000E+02  0.4100000E+02  0.2601002E+03 -0.3183725E-01  0.3672894E+01 -0.4495760E-03
  0.2100000E+02  0.4300000E+02  0.2601002E+03 -0.4388463E-01  0.3672894E+01 -0.6196980E-03
  0.2100000E+02  0.4500000E+02  0.2601002E+03 -0.5272834E-01  0.3672894E+01 -0.7445806E-03
  0.2100000E+02  0.4700000E+02  0.2601002E+03 -0.5020074E-01  0.3672893E+01 -0.7088883E-03
  0.2100000E+02  0.4900000E+02  0.2601002E+03 -0.3921400E-01  0.3672893E+01 -0.5537437E-03
  0.2300000E+02  0.1000000E+01  0.2601039E+03  0.1987812E-01  0.3672946E+01  0.2807004E-03
  0.2300000E+02  0.3000000E+01  0.2601040E+03 -0.3156823E+00  0.3672947E+01 -0.4457772E-02
  0.2300000E+02  0.5000000E+01  0.2601041E+03 -0.9263207E-01  0.3672948E+01 -0.1308064E-02
  0.2300000E+02  0.7000000E+01  0.2601041E+03 -0.4043610E-01  0.3672948E+01 -0.5710010E-03
  0.2300000E+02  0.9000000E+01  0.2601040E+03 -0.1131590E-02  0.3672948E+01 -0.1597927E-04
  0.2300000E+02  0.1100000E+02  0.2601040E+03  0.3953503E-01  0.3672948E+01  0.5582769E-03
  0.2300000E+02  0.1300000E+02  0.2601040E+03  0.5706061E-01  0.3672948E+01  0.8057569E-03
  0.2300000E+02  0.1500000E+02  0.2601040E+03  0.6657052E-01  0.3672947E+01  0.9400470E-03
  0.2300000E+02  0.1700000E+02  0.2601040E+03  0.4605551E-01  0.3672947E+01  0.6503532E-03
  0.2300000E+02  0.1900000E+02  0.2601040E+03  0.2876369E-01  0.3672947E+01  0.4061741E-03
  0.2300000E+02  0.2100000E+02  0.2601040E+03  0.3187043E-01  0.3672947E+01  0.4500446E-03
  0.2300000E+02  0.2300000E+02  0.2601040E+03  0.2534939E-01  0.3672948E+01  0.3579606E-03
  0.2300000E+02  0.2500000E+02  0.2601040E+03  0.1738237E-01  0.3672948E+01  0.2454577E-03
  0.2300000E+02  0.2700000E+02  0.2601041E+03  0.3462494E-02  0.3672948E+01  0.4889412E-04
  0.2300000E+02  0.2900000E+02  0.2601041E+03 -0.1497750E-01  0.3672948E+01 -0.2114983E-03
  0.2300000E+02  0.3100000E+02  0.2601041E+03 -0.3717381E-01  0.3672948E+01 -0.5249339E-03
  0.2300000E+02  0.3300000E+02  0.2601041E+03 -0.4997682E-01  0.3672949E+01 -0.7057263E-03
  0.2300000E+02  0.3500000E+02  0.2601041E+03 -0.6497753E-01  0.3672949E+01 -0.9175524E-03
  0.2300000E+02  0.3700000E+02  0.2601041E+03 -0.7608622E-01  0.3672949E+01 -0.1074419E-02
  0.2300000E+02  0.3900000E+02  0.2601042E+03 -0.6987907E-01  0.3672949E+01 -0.9867673E-03
  0.2300000E+02  0.4100000E+02  0.2601042E+03 -0.6254350E-01  0.3672950E+01 -0.8831812E-03
  0.2300000E+02  0.4300000E+02  0.2601042E+03 -0.4518325E-01  0.3672950E+01 -0.6380358E-03
  0.2300000E+02  0.4500000E+02  0.2601042E+03 -0.1379354E-01  0.3672950E+01 -0.1947796E-03
  0.2300000E+02  0.4700000E+02  0.2601042E+03  0.1738816E-01  0.3672950E+01  0.2455395E-03
  0.2300000E+02  0.4900000E+02  0.2601042E+03  0.4319439E-01  0.3672950E+01  0.6099511E-03
  0.2500000E+02  0.1000000E+01  0.2601067E+03  0.1070916E-01  0.3672986E+01  0.1512249E-03
  0.2500000E+02  0.3000000E+01  0.2601067E+03  0.5430837E+00  0.3672986E+01  0.7668924E-02
  0.2500000E+02  0.5000000E+01  0.2601067E+03 -0.4048696E-01  0.3672986E+01 -0.5717192E-03
  0.2500000E+02  0.7000000E+01  0.2601067E+03 -0.4903984E-01  0.3672986E+01 -0.6924950E-03
  0.2500000E+02  0.9000000E+01  0.2601067E+03 -0.7321573E-01  0.3672986E+01 -0.1033885E-02
  0.2500000E+02  0.1100000E+02  0.2601067E+03 -0.7688903E-01  0.3672986E+01 -0.1085755E-02
  0.2500000E+02  0.1300000E+02  0.2601067E+03 -0.7220022E-01  0.3672985E+01 -0.1019544E-02
  0.2500000E+02  0.1500000E+02  0.2601067E+03 -0.7137251E-01  0.3672985E+01 -0.1007856E-02
  0.2500000E+02  0.1700000E+02  0.2601067E+03 -0.5040447E-01  0.3672985E+01 -0.7117652E-03
  0.2500000E+02  0.1900000E+02  0.2601067E+03 -0.2935583E-01  0.3672985E+01 -0.4145358E-03
  0.2500000E+02  0.2100000E+02  0.2601067E+03 -0.1890675E-01  0.3672985E+01 -0.2669835E-03
  0.2500000E+02  0.2300000E+02  0.2601067E+03  0.1364704E-02  0.3672985E+01  0.1927109E-04
  0.2500000E+02  0.2500000E+02  0.2601067E+03  0.1621966E-01  0.3672985E+01  0.2290390E-03
  0.2500000E+02  0.2700000E+02  0.2601066E+03  0.1940542E-01  0.3672984E+01  0.2740253E-03
  0.2500000E+02  0.2900000E+02  0.2601066E+03  0.1635358E-01  0.3672984E+01  0.2309300E-03
  0.2500000E+02  0.3100000E+02  0.2601066E+03  0.2278037E-01  0.3672984E+01  0.3216832E-03
  0.2500000E+02  0.3300000E+02  0.2601066E+03  0.2158705E-01  0.3672984E+01  0.3048323E-03
  0.2500000E+02  0.3500000E+02  0.2601066E+03  0.1467574E-01  0.3672984E+01  0.2072372E-03
  0.2500000E+02  0.3700000E+02  0.2601066E+03  0.2171757E-01  0.3672984E+01  0.3066754E-03
  0.2500000E+02  0.3900000E+02  0.2601066E+03  0.3624077E-01  0.3672984E+01  0.5117585E-03
  0.2500000E+02  0.4100000E+02  0.2601066E+03  0.5193037E-01  0.3672984E+01  0.7333125E-03
  0.2500000E+02  0.4300000E+02  0.2601066E+03  0.5838525E-01  0.3672984E+01  0.8244623E-03
  0.2500000E+02  0.4500000E+02  0.2601066E+03  0.5338870E-01  0.3672983E+01  0.7539056E-03
  0.2500000E+02  0.4700000E+02  0.2601066E+03  0.4080506E-01  0.3672983E+01  0.5762111E-03
  0.2500000E+02  0.4900000E+02  0.2601066E+03  0.2015085E-01  0.3672983E+01  0.2845515E-03
  0.2700000E+02  0.1000000E+01  0.2601067E+03 -0.1202739E-01  0.3672985E+01 -0.1698396E-03
  0.2700000E+02  0.3000000E+01  0.2601067E+03  0.7324614E-02  0.3672985E+01  0.1034314E-03
  0.2700000E+02  0.5000000E+01  0.2601066E+03  0.8789024E-01  0.3672984E+01  0.1241104E-02