title="3d vectors"
variables="x","y","z","vx","vy","vz"
zone i=    25, j=     1, k=   200, T=" 0.10000E+01"
  0.100000E+01  0.500000E+00  0.100000E+01  0.107377E-04 -0.365547E-09 -0.644369E-05
  0.100000E+01  0.500000E+00  0.300000E+01  0.858999E-04  0.719847E-10 -0.102729E-03
  0.100000E+01  0.500000E+00  0.500000E+01  0.859137E-04  0.356429E-10 -0.211751E-03
  0.100000E+01  0.500000E+00  0.700000E+01  0.859514E-04 -0.244497E-11 -0.320478E-03
  0.100000E+01  0.500000E+00  0.900000E+01  0.860132E-04 -0.164421E-10 -0.429289E-03
  0.100000E+01  0.500000E+00  0.110000E+02  0.860990E-04 -0.207271E-10 -0.538192E-03
  0.100000E+01  0.500000E+00  0.130000E+02  0.862089E-04 -0.240654E-10 -0.647189E-03
  0.100000E+01  0.500000E+00  0.150000E+02  0.863430E-04 -0.347188E-10 -0.756290E-03
  0.100000E+01  0.500000E+00  0.170000E+02  0.865013E-04 -0.512958E-10 -0.865531E-03
  0.100000E+01  0.500000E+00  0.190000E+02  0.866839E-04 -0.725742E-10 -0.974882E-03
  0.100000E+01  0.500000E+00  0.210000E+02  0.868908E-04 -0.108549E-09 -0.108431E-02
  0.100000E+01  0.500000E+00  0.230000E+02  0.871223E-04 -0.161123E-09 -0.119388E-02
  0.100000E+01  0.500000E+00  0.250000E+02  0.873783E-04 -0.222609E-09 -0.130361E-02
  0.100000E+01  0.500000E+00  0.270000E+02  0.876591E-04 -0.287840E-09 -0.141351E-02
  0.100000E+01  0.500000E+00  0.290000E+02  0.879648E-04 -0.352094E-09 -0.152359E-02
  0.100000E+01  0.500000E+00  0.310000E+02  0.882955E-04 -0.412087E-09 -0.163387E-02
  0.100000E+01  0.500000E+00  0.330000E+02  0.886515E-04 -0.467971E-09 -0.174436E-02
  0.100000E+01  0.500000E+00  0.350000E+02  0.890328E-04 -0.523054E-09 -0.185508E-02
  0.100000E+01  0.500000E+00  0.370000E+02  0.894397E-04 -0.579619E-09 -0.196606E-02
  0.100000E+01  0.500000E+00  0.390000E+02  0.898725E-04 -0.636354E-09 -0.207731E-02
  0.100000E+01  0.500000E+00  0.410000E+02  0.903312E-04 -0.692944E-09 -0.218885E-02
  0.100000E+01  0.500000E+00  0.430000E+02  0.908163E-04 -0.751931E-09 -0.230070E-02
  0.100000E+01  0.500000E+00  0.450000E+02  0.913278E-04 -0.816865E-09 -0.241287E-02
  0.100000E+01  0.500000E+00  0.470000E+02  0.918662E-04 -0.890814E-09 -0.252538E-02
  0.100000E+01  0.500000E+00  0.490000E+02  0.924316E-04 -0.975697E-09 -0.263824E-02
  0.300000E+01  0.500000E+00  0.100000E+01  0.854982E-04 -0.118318E-08 -0.458199E-04
  0.300000E+01  0.500000E+00  0.300000E+01  0.855069E-04 -0.120813E-08 -0.317954E-04
  0.300000E+01  0.500000E+00  0.500000E+01  0.855110E-04 -0.122463E-08 -0.200949E-05
  0.300000E+01  0.500000E+00  0.700000E+01  0.855087E-04 -0.120794E-08  0.280155E-04
  0.300000E+01  0.500000E+00  0.900000E+01  0.855000E-04 -0.118710E-08  0.580403E-04
  0.300000E+01  0.500000E+00  0.110000E+02  0.854849E-04 -0.116310E-08  0.880877E-04
  0.300000E+01  0.500000E+00  0.130000E+02  0.854633E-04 -0.113820E-08  0.118196E-03
  0.300000E+01  0.500000E+00  0.150000E+02  0.854353E-04 -0.111362E-08  0.148402E-03
  0.300000E+01  0.500000E+00  0.170000E+02  0.854007E-04 -0.109508E-08  0.178755E-03
  0.300000E+01  0.500000E+00  0.190000E+02  0.853596E-04 -0.108672E-08  0.209273E-03
  0.300000E+01  0.500000E+00  0.210000E+02  0.853119E-04 -0.108143E-08  0.239966E-03
  0.300000E+01  0.500000E+00  0.230000E+02  0.852576E-04 -0.107428E-08  0.270882E-03
  0.300000E+01  0.500000E+00  0.250000E+02  0.851964E-04 -0.106800E-08  0.302052E-03
  0.300000E+01  0.500000E+00  0.270000E+02  0.851285E-04 -0.106406E-08  0.333496E-03
  0.300000E+01  0.500000E+00  0.290000E+02  0.850537E-04 -0.106289E-08  0.365239E-03
  0.300000E+01  0.500000E+00  0.310000E+02  0.849718E-04 -0.106491E-08  0.397303E-03
  0.300000E+01  0.500000E+00  0.330000E+02  0.848829E-04 -0.106961E-08  0.429711E-03
  0.300000E+01  0.500000E+00  0.350000E+02  0.847867E-04 -0.107470E-08  0.462479E-03
  0.300000E+01  0.500000E+00  0.370000E+02  0.846832E-04 -0.107868E-08  0.495634E-03
  0.300000E+01  0.500000E+00  0.390000E+02  0.845723E-04 -0.108298E-08  0.529198E-03
  0.300000E+01  0.500000E+00  0.410000E+02  0.844537E-04 -0.108830E-08  0.563193E-03
  0.300000E+01  0.500000E+00  0.430000E+02  0.843274E-04 -0.109408E-08  0.597646E-03
  0.300000E+01  0.500000E+00  0.450000E+02  0.841932E-04 -0.110003E-08  0.632582E-03
  0.300000E+01  0.500000E+00  0.470000E+02  0.840510E-04 -0.110558E-08  0.668021E-03
  0.300000E+01  0.500000E+00  0.490000E+02  0.839006E-04 -0.110951E-08  0.703985E-03
  0.500000E+01  0.500000E+00  0.100000E+01  0.848957E-04  0.371822E-09  0.124778E-04
  0.500000E+01  0.500000E+00  0.300000E+01  0.848932E-04  0.395114E-09  0.906505E-05
  0.500000E+01  0.500000E+00  0.500000E+01  0.848920E-04  0.416268E-09  0.153480E-05
  0.500000E+01  0.500000E+00  0.700000E+01  0.848923E-04  0.415755E-09 -0.611152E-05
  0.500000E+01  0.500000E+00  0.900000E+01  0.848943E-04  0.407058E-09 -0.137696E-04
  0.500000E+01  0.500000E+00  0.110000E+02  0.848979E-04  0.393633E-09 -0.214324E-04
  0.500000E+01  0.500000E+00  0.130000E+02  0.849032E-04  0.376694E-09 -0.291258E-04
  0.500000E+01  0.500000E+00  0.150000E+02  0.849101E-04  0.358129E-09 -0.368671E-04
  0.500000E+01  0.500000E+00  0.170000E+02  0.849187E-04  0.341252E-09 -0.446643E-04
  0.500000E+01  0.500000E+00  0.190000E+02  0.849290E-04  0.329441E-09 -0.525436E-04
  0.500000E+01  0.500000E+00  0.210000E+02  0.849410E-04  0.321059E-09 -0.605174E-04
  0.500000E+01  0.500000E+00  0.230000E+02  0.849548E-04  0.312352E-09 -0.685851E-04
  0.500000E+01  0.500000E+00  0.250000E+02  0.849703E-04  0.302520E-09 -0.767650E-04
  0.500000E+01  0.500000E+00  0.270000E+02  0.849876E-04  0.291458E-09 -0.850687E-04
  0.500000E+01  0.500000E+00  0.290000E+02  0.850067E-04  0.278801E-09 -0.935084E-04
  0.500000E+01  0.500000E+00  0.310000E+02  0.850277E-04  0.264881E-09 -0.102098E-03
  0.500000E+01  0.500000E+00  0.330000E+02  0.850506E-04  0.250792E-09 -0.110852E-03
  0.500000E+01  0.500000E+00  0.350000E+02  0.850755E-04  0.237364E-09 -0.119783E-03
  0.500000E+01  0.500000E+00  0.370000E+02  0.851024E-04  0.224955E-09 -0.128899E-03
  0.500000E+01  0.500000E+00  0.390000E+02  0.851313E-04  0.213803E-09 -0.138207E-03
  0.500000E+01  0.500000E+00  0.410000E+02  0.851624E-04  0.203964E-09 -0.147726E-03
  0.500000E+01  0.500000E+00  0.430000E+02  0.851956E-04  0.196695E-09 -0.157471E-03
  0.500000E+01  0.500000E+00  0.450000E+02  0.852310E-04  0.194157E-09 -0.167454E-03
  0.500000E+01  0.500000E+00  0.470000E+02  0.852688E-04  0.197318E-09 -0.177686E-03
  0.500000E+01  0.500000E+00  0.490000E+02  0.853089E-04  0.204595E-09 -0.188177E-03
  0.700000E+01  0.500000E+00  0.100000E+01  0.850478E-04  0.284808E-09 -0.339033E-05
  0.700000E+01  0.500000E+00  0.300000E+01  0.850485E-04  0.294353E-09 -0.261192E-05
  0.700000E+01  0.500000E+00  0.500000E+01  0.850489E-04  0.301585E-09 -0.649595E-06
  0.700000E+01  0.500000E+00  0.700000E+01  0.850488E-04  0.290696E-09  0.129119E-05
  0.700000E+01  0.500000E+00  0.900000E+01  0.850484E-04  0.279356E-09  0.324240E-05
  0.700000E+01  0.500000E+00  0.110000E+02  0.850475E-04  0.266155E-09  0.519566E-05
  0.700000E+01  0.500000E+00  0.130000E+02  0.850463E-04  0.253352E-09  0.716446E-05
  0.700000E+01  0.500000E+00  0.150000E+02  0.850446E-04  0.240639E-09  0.915389E-05
  0.700000E+01  0.500000E+00  0.170000E+02  0.850425E-04  0.230250E-09  0.111523E-04
  0.700000E+01  0.500000E+00  0.190000E+02  0.850399E-04  0.223347E-09  0.131827E-04
  0.700000E+01  0.500000E+00  0.210000E+02  0.850369E-04  0.215323E-09  0.152645E-04
  0.700000E+01  0.500000E+00  0.230000E+02  0.850334E-04  0.204798E-09  0.173788E-04
  0.700000E+01  0.500000E+00  0.250000E+02  0.850295E-04  0.194609E-09  0.195308E-04
  0.700000E+01  0.500000E+00  0.270000E+02  0.850251E-04  0.186113E-09  0.217271E-04
  0.700000E+01  0.500000E+00  0.290000E+02  0.850202E-04  0.179994E-09  0.239711E-04
  0.700000E+01  0.500000E+00  0.310000E+02  0.850148E-04  0.176497E-09  0.262695E-04
  0.700000E+01  0.500000E+00  0.330000E+02  0.850088E-04  0.174920E-09  0.286287E-04
  0.700000E+01  0.500000E+00  0.350000E+02  0.850024E-04  0.173412E-09  0.310576E-04
  0.700000E+01  0.500000E+00  0.370000E+02  0.849954E-04  0.170748E-09  0.335560E-04
  0.700000E+01  0.500000E+00  0.390000E+02  0.849879E-04  0.167814E-09  0.361269E-04
  0.700000E+01  0.500000E+00  0.410000E+02  0.849797E-04  0.164892E-09  0.387793E-04
  0.700000E+01  0.500000E+00  0.430000E+02  0.849710E-04  0.160353E-09  0.415185E-04
  0.700000E+01  0.500000E+00  0.450000E+02  0.849616E-04  0.152484E-09  0.443483E-04
  0.700000E+01  0.500000E+00  0.470000E+02  0.849516E-04  0.140285E-09  0.472754E-04
  0.700000E+01  0.500000E+00  0.490000E+02  0.849409E-04  0.123611E-09  0.503099E-04
  0.900000E+01  0.500000E+00  0.100000E+01  0.850107E-04 -0.804900E-09  0.923893E-06
  0.900000E+01  0.500000E+00  0.300000E+01  0.850105E-04 -0.831950E-09  0.743059E-06
  0.900000E+01  0.500000E+00  0.500000E+01  0.850104E-04 -0.852592E-09  0.225935E-06
  0.900000E+01  0.500000E+00  0.700000E+01  0.850104E-04 -0.840163E-09 -0.248718E-06
  0.900000E+01  0.500000E+00  0.900000E+01  0.850104E-04 -0.834545E-09 -0.725489E-06
  0.900000E+01  0.500000E+00  0.110000E+02  0.850106E-04 -0.833772E-09 -0.121725E-05
  0.900000E+01  0.500000E+00  0.130000E+02  0.850109E-04 -0.836826E-09 -0.172247E-05
  0.900000E+01  0.500000E+00  0.150000E+02  0.850113E-04 -0.841342E-09 -0.223887E-05
  0.900000E+01  0.500000E+00  0.170000E+02  0.850119E-04 -0.848241E-09 -0.276095E-05
  0.900000E+01  0.500000E+00  0.190000E+02  0.850125E-04 -0.859158E-09 -0.329111E-05
  0.900000E+01  0.500000E+00  0.210000E+02  0.850133E-04 -0.870113E-09 -0.383810E-05
  0.900000E+01  0.500000E+00  0.230000E+02  0.850141E-04 -0.877713E-09 -0.439977E-05
  0.900000E+01  0.500000E+00  0.250000E+02  0.850151E-04 -0.882596E-09 -0.497475E-05
  0.900000E+01  0.500000E+00  0.270000E+02  0.850162E-04 -0.885570E-09 -0.556292E-05
  0.900000E+01  0.500000E+00  0.290000E+02  0.850175E-04 -0.887510E-09 -0.616458E-05
  0.900000E+01  0.500000E+00  0.310000E+02  0.850189E-04 -0.889317E-09 -0.678208E-05
  0.900000E+01  0.500000E+00  0.330000E+02  0.850204E-04 -0.891627E-09 -0.741725E-05
  0.900000E+01  0.500000E+00  0.350000E+02  0.850221E-04 -0.894178E-09 -0.807346E-05
  0.900000E+01  0.500000E+00  0.370000E+02  0.850239E-04 -0.896461E-09 -0.875300E-05
  0.900000E+01  0.500000E+00  0.390000E+02  0.850259E-04 -0.898747E-09 -0.945953E-05
  0.900000E+01  0.500000E+00  0.410000E+02  0.850280E-04 -0.900964E-09 -0.101924E-04
  0.900000E+01  0.500000E+00  0.430000E+02  0.850303E-04 -0.902739E-09 -0.109515E-04
  0.900000E+01  0.500000E+00  0.450000E+02  0.850328E-04 -0.904374E-09 -0.117391E-04
  0.900000E+01  0.500000E+00  0.470000E+02  0.850354E-04 -0.905948E-09 -0.125599E-04
  0.900000E+01  0.500000E+00  0.490000E+02  0.850383E-04 -0.905610E-09 -0.134229E-04
  0.110000E+02  0.500000E+00  0.100000E+01  0.850225E-04 -0.100010E-08 -0.254427E-06
  0.110000E+02  0.500000E+00  0.300000E+01  0.850226E-04 -0.100157E-08 -0.155980E-06
  0.110000E+02  0.500000E+00  0.500000E+01  0.850226E-04 -0.100888E-08 -0.796614E-07
  0.110000E+02  0.500000E+00  0.700000E+01  0.850226E-04 -0.101603E-08  0.281793E-07
  0.110000E+02  0.500000E+00  0.900000E+01  0.850226E-04 -0.101409E-08  0.133285E-06
  0.110000E+02  0.500000E+00  0.110000E+02  0.850226E-04 -0.100511E-08  0.259687E-06
  0.110000E+02  0.500000E+00  0.130000E+02  0.850225E-04 -0.994197E-09  0.394878E-06
  0.110000E+02  0.500000E+00  0.150000E+02  0.850224E-04 -0.984343E-09  0.533703E-06
  0.110000E+02  0.500000E+00  0.170000E+02  0.850223E-04 -0.977906E-09  0.682044E-06
  0.110000E+02  0.500000E+00  0.190000E+02  0.850221E-04 -0.975423E-09  0.830692E-06
  0.110000E+02  0.500000E+00  0.210000E+02  0.850219E-04 -0.975129E-09  0.973807E-06
  0.110000E+02  0.500000E+00  0.230000E+02  0.850217E-04 -0.977230E-09  0.112366E-05
  0.110000E+02  0.500000E+00  0.250000E+02  0.850215E-04 -0.983321E-09  0.127930E-05
  0.110000E+02  0.500000E+00  0.270000E+02  0.850212E-04 -0.993323E-09  0.143865E-05
  0.110000E+02  0.500000E+00  0.290000E+02  0.850209E-04 -0.100605E-08  0.160169E-05
  0.110000E+02  0.500000E+00  0.310000E+02  0.850205E-04 -0.102034E-08  0.176903E-05
  0.110000E+02  0.500000E+00  0.330000E+02  0.850201E-04 -0.103522E-08  0.194143E-05
  0.110000E+02  0.500000E+00  0.350000E+02  0.850197E-04 -0.104957E-08  0.211738E-05
  0.110000E+02  0.500000E+00  0.370000E+02  0.850192E-04 -0.106279E-08  0.230055E-05
  0.110000E+02  0.500000E+00  0.390000E+02  0.850187E-04 -0.107513E-08  0.249481E-05
  0.110000E+02  0.500000E+00  0.410000E+02  0.850182E-04 -0.108625E-08  0.269482E-05
  0.110000E+02  0.500000E+00  0.430000E+02  0.850176E-04 -0.109457E-08  0.290010E-05
  0.110000E+02  0.500000E+00  0.450000E+02  0.850169E-04 -0.109825E-08  0.311394E-05
  0.110000E+02  0.500000E+00  0.470000E+02  0.850162E-04 -0.109580E-08  0.333655E-05
  0.110000E+02  0.500000E+00  0.490000E+02  0.850154E-04 -0.108744E-08  0.356909E-05
  0.130000E+02  0.500000E+00  0.100000E+01  0.850204E-04 -0.104009E-09  0.768231E-07
  0.130000E+02  0.500000E+00  0.300000E+01  0.850204E-04 -0.647804E-10  0.502350E-07
  0.130000E+02  0.500000E+00  0.500000E+01  0.850204E-04 -0.321773E-10  0.521422E-07
  0.130000E+02  0.500000E+00  0.700000E+01  0.850204E-04 -0.473429E-10  0.157980E-07
  0.130000E+02  0.500000E+00  0.900000E+01  0.850204E-04 -0.627745E-10 -0.183315E-07
  0.130000E+02  0.500000E+00  0.110000E+02  0.850204E-04 -0.778270E-10 -0.595206E-07
  0.130000E+02  0.500000E+00  0.130000E+02  0.850204E-04 -0.891919E-10 -0.986501E-07
  0.130000E+02  0.500000E+00  0.150000E+02  0.850204E-04 -0.972756E-10 -0.134457E-06
  0.130000E+02  0.500000E+00  0.170000E+02  0.850205E-04 -0.101684E-09 -0.171060E-06
  0.130000E+02  0.500000E+00  0.190000E+02  0.850205E-04 -0.101874E-09 -0.209681E-06
  0.130000E+02  0.500000E+00  0.210000E+02  0.850206E-04 -0.100638E-09 -0.245087E-06
  0.130000E+02  0.500000E+00  0.230000E+02  0.850206E-04 -0.100011E-09 -0.279022E-06
  0.130000E+02  0.500000E+00  0.250000E+02  0.850207E-04 -0.994486E-10 -0.313886E-06
  0.130000E+02  0.500000E+00  0.270000E+02  0.850207E-04 -0.988234E-10 -0.351888E-06
  0.130000E+02  0.500000E+00  0.290000E+02  0.850208E-04 -0.984671E-10 -0.393337E-06
  0.130000E+02  0.500000E+00  0.310000E+02  0.850209E-04 -0.985004E-10 -0.437189E-06
  0.130000E+02  0.500000E+00  0.330000E+02  0.850210E-04 -0.985857E-10 -0.484187E-06
  0.130000E+02  0.500000E+00  0.350000E+02  0.850211E-04 -0.987703E-10 -0.532520E-06
  0.130000E+02  0.500000E+00  0.370000E+02  0.850212E-04 -0.991713E-10 -0.583070E-06
  0.130000E+02  0.500000E+00  0.390000E+02  0.850213E-04 -0.987671E-10 -0.638509E-06
  0.130000E+02  0.500000E+00  0.410000E+02  0.850215E-04 -0.973381E-10 -0.696593E-06
  0.130000E+02  0.500000E+00  0.430000E+02  0.850216E-04 -0.960516E-10 -0.756770E-06
  0.130000E+02  0.500000E+00  0.450000E+02  0.850218E-04 -0.955668E-10 -0.823008E-06
  0.130000E+02  0.500000E+00  0.470000E+02  0.850220E-04 -0.966248E-10 -0.892973E-06
  0.130000E+02  0.500000E+00  0.490000E+02  0.850222E-04 -0.100966E-09 -0.960770E-06
  0.150000E+02  0.500000E+00  0.100000E+01  0.850194E-04  0.354899E-09 -0.296724E-07
  0.150000E+02  0.500000E+00  0.300000E+01  0.850194E-04  0.363864E-09 -0.143000E-06
  0.150000E+02  0.500000E+00  0.500000E+01  0.850194E-04  0.379087E-09 -0.165897E-07
  0.150000E+02  0.500000E+00  0.700000E+01  0.850194E-04  0.388667E-09  0.373440E-08
  0.150000E+02  0.500000E+00  0.900000E+01  0.850194E-04  0.388176E-09  0.294649E-07
  0.150000E+02  0.500000E+00  0.110000E+02  0.850194E-04  0.378616E-09  0.449401E-07
  0.150000E+02  0.500000E+00  0.130000E+02  0.850194E-04  0.362499E-09  0.533743E-07
  0.150000E+02  0.500000E+00  0.150000E+02  0.850194E-04  0.343600E-09  0.581256E-07
  0.150000E+02  0.500000E+00  0.170000E+02  0.850194E-04  0.325930E-09  0.564949E-07
  0.150000E+02  0.500000E+00  0.190000E+02  0.850194E-04  0.311423E-09  0.576250E-07
  0.150000E+02  0.500000E+00  0.210000E+02  0.850194E-04  0.299210E-09  0.642541E-07
  0.150000E+02  0.500000E+00  0.230000E+02  0.850194E-04  0.290188E-09  0.670378E-07
  0.150000E+02  0.500000E+00  0.250000E+02  0.850194E-04  0.286215E-09  0.685839E-07
  0.150000E+02  0.500000E+00  0.270000E+02  0.850194E-04  0.287195E-09  0.743108E-07
  0.150000E+02  0.500000E+00  0.290000E+02  0.850194E-04  0.291983E-09  0.843653E-07
  0.150000E+02  0.500000E+00  0.310000E+02  0.850193E-04  0.299682E-09  0.961925E-07
  0.150000E+02  0.500000E+00  0.330000E+02  0.850193E-04  0.309419E-09  0.108868E-06
  0.150000E+02  0.500000E+00  0.350000E+02  0.850193E-04  0.320302E-09  0.123371E-06
  0.150000E+02  0.500000E+00  0.370000E+02  0.850193E-04  0.331875E-09  0.137502E-06
  0.150000E+02  0.500000E+00  0.390000E+02  0.850192E-04  0.343192E-09  0.151494E-06
  0.150000E+02  0.500000E+00  0.410000E+02  0.850192E-04  0.353018E-09  0.169135E-06
  0.150000E+02  0.500000E+00  0.430000E+02  0.850192E-04  0.360656E-09  0.189215E-06
  0.150000E+02  0.500000E+00  0.450000E+02  0.850191E-04  0.364793E-09  0.213761E-06
  0.150000E+02  0.500000E+00  0.470000E+02  0.850191E-04  0.363997E-09  0.243223E-06
  0.150000E+02  0.500000E+00  0.490000E+02  0.850190E-04  0.358897E-09  0.273039E-06
  0.170000E+02  0.500000E+00  0.100000E+01  0.850186E-04 -0.272146E-10  0.906783E-08
  0.170000E+02  0.500000E+00  0.300000E+01  0.850186E-04 -0.768178E-10  0.534273E-07
  0.170000E+02  0.500000E+00  0.500000E+01  0.850186E-04 -0.119677E-09 -0.277788E-07
  0.170000E+02  0.500000E+00  0.700000E+01  0.850186E-04 -0.106934E-09 -0.214821E-07
  0.170000E+02  0.500000E+00  0.900000E+01  0.850186E-04 -0.903919E-10 -0.233710E-07
  0.170000E+02  0.500000E+00  0.110000E+02  0.850186E-04 -0.710841E-10 -0.148346E-07
  0.170000E+02  0.500000E+00  0.130000E+02  0.850186E-04 -0.532243E-10 -0.703237E-08
  0.170000E+02  0.500000E+00  0.150000E+02  0.850186E-04 -0.386047E-10 -0.216452E-08
  0.170000E+02  0.500000E+00  0.170000E+02  0.850186E-04 -0.294156E-10 -0.105206E-08
  0.170000E+02  0.500000E+00  0.190000E+02  0.850186E-04 -0.269859E-10 -0.129959E-09
  0.170000E+02  0.500000E+00  0.210000E+02  0.850186E-04 -0.293105E-10 -0.660344E-09
  0.170000E+02  0.500000E+00  0.230000E+02  0.850186E-04 -0.354988E-10 -0.331100E-08
  0.170000E+02  0.500000E+00  0.250000E+02  0.850186E-04 -0.463830E-10 -0.600180E-08
  0.170000E+02  0.500000E+00  0.270000E+02  0.850186E-04 -0.609510E-10 -0.108064E-07
  0.170000E+02  0.500000E+00  0.290000E+02  0.850186E-04 -0.770249E-10 -0.176613E-07
  0.170000E+02  0.500000E+00  0.310000E+02  0.850186E-04 -0.932912E-10 -0.255242E-07
  0.170000E+02  0.500000E+00  0.330000E+02  0.850186E-04 -0.109427E-09 -0.313138E-07
  0.170000E+02  0.500000E+00  0.350000E+02  0.850186E-04 -0.124919E-09 -0.378266E-07
  0.170000E+02  0.500000E+00  0.370000E+02  0.850186E-04 -0.139647E-09 -0.432251E-07
  0.170000E+02  0.500000E+00  0.390000E+02  0.850187E-04 -0.154270E-09 -0.442554E-07
  0.170000E+02  0.500000E+00  0.410000E+02  0.850187E-04 -0.168369E-09 -0.471598E-07
  0.170000E+02  0.500000E+00  0.430000E+02  0.850187E-04 -0.180821E-09 -0.510836E-07
  0.170000E+02  0.500000E+00  0.450000E+02  0.850187E-04 -0.190552E-09 -0.541691E-07
  0.170000E+02  0.500000E+00  0.470000E+02  0.850187E-04 -0.195765E-09 -0.604176E-07
  0.170000E+02  0.500000E+00  0.490000E+02  0.850187E-04 -0.194825E-09 -0.711735E-07
  0.190000E+02  0.500000E+00  0.100000E+01  0.850194E-04 -0.305227E-09  0.305226E-08
  0.190000E+02  0.500000E+00  0.300000E+01  0.850194E-04 -0.303709E-09  0.182331E-06
  0.190000E+02  0.500000E+00  0.500000E+01  0.850194E-04 -0.314912E-09  0.163283E-07
  0.190000E+02  0.500000E+00  0.700000E+01  0.850194E-04 -0.334661E-09  0.305020E-08
  0.190000E+02  0.500000E+00  0.900000E+01  0.850194E-04 -0.346996E-09 -0.973658E-08
  0.190000E+02  0.500000E+00  0.110000E+02  0.850195E-04 -0.352269E-09 -0.213479E-07
  0.190000E+02  0.500000E+00  0.130000E+02  0.850195E-04 -0.350413E-09 -0.267909E-07
  0.190000E+02  0.500000E+00  0.150000E+02  0.850195E-04 -0.343763E-09 -0.276527E-07
  0.190000E+02  0.500000E+00  0.170000E+02  0.850195E-04 -0.335626E-09 -0.159236E-07
  0.190000E+02  0.500000E+00  0.190000E+02  0.850195E-04 -0.327864E-09 -0.649897E-08
  0.190000E+02  0.500000E+00  0.210000E+02  0.850195E-04 -0.319067E-09 -0.383227E-08
  0.190000E+02  0.500000E+00  0.230000E+02  0.850195E-04 -0.309263E-09  0.482626E-08
  0.190000E+02  0.500000E+00  0.250000E+02  0.850195E-04 -0.299848E-09  0.139337E-07
  0.190000E+02  0.500000E+00  0.270000E+02  0.850195E-04 -0.291602E-09  0.200473E-07
  0.190000E+02  0.500000E+00  0.290000E+02  0.850195E-04 -0.285345E-09  0.238821E-07
  0.190000E+02  0.500000E+00  0.310000E+02  0.850195E-04 -0.281711E-09  0.285442E-07
  0.190000E+02  0.500000E+00  0.330000E+02  0.850195E-04 -0.280467E-09  0.310413E-07
  0.190000E+02  0.500000E+00  0.350000E+02  0.850195E-04 -0.281323E-09  0.326985E-07
  0.190000E+02  0.500000E+00  0.370000E+02  0.850195E-04 -0.284180E-09  0.356444E-07
  0.190000E+02  0.500000E+00  0.390000E+02  0.850195E-04 -0.287381E-09  0.356021E-07
  0.190000E+02  0.500000E+00  0.410000E+02  0.850195E-04 -0.289616E-09  0.346182E-07
  0.190000E+02  0.500000E+00  0.430000E+02  0.850195E-04 -0.290762E-09  0.331981E-07
  0.190000E+02  0.500000E+00  0.450000E+02  0.850195E-04 -0.289860E-09  0.272453E-07
  0.190000E+02  0.500000E+00  0.470000E+02  0.850195E-04 -0.286396E-09  0.192223E-07
  0.190000E+02  0.500000E+00  0.490000E+02  0.850195E-04 -0.281524E-09  0.129171E-07
  0.210000E+02  0.500000E+00  0.100000E+01  0.850208E-04 -0.238513E-09 -0.785247E-08
  0.210000E+02  0.500000E+00  0.300000E+01  0.850208E-04 -0.170004E-09 -0.195041E-06
  0.210000E+02  0.500000E+00  0.500000E+01  0.850207E-04 -0.103477E-09  0.347199E-07
  0.210000E+02  0.500000E+00  0.700000E+01  0.850207E-04 -0.107835E-09  0.262352E-07
  0.210000E+02  0.500000E+00  0.900000E+01  0.850207E-04 -0.116198E-09  0.270893E-07
  0.210000E+02  0.500000E+00  0.110000E+02  0.850207E-04 -0.128963E-09  0.218918E-07
  0.210000E+02  0.500000E+00  0.130000E+02  0.850207E-04 -0.143895E-09  0.172234E-07
  0.210000E+02  0.500000E+00  0.150000E+02  0.850207E-04 -0.159349E-09  0.128452E-07
  0.210000E+02  0.500000E+00  0.170000E+02  0.850207E-04 -0.172127E-09  0.524720E-08
  0.210000E+02  0.500000E+00  0.190000E+02  0.850207E-04 -0.179965E-09 -0.150626E-08
  0.210000E+02  0.500000E+00  0.210000E+02  0.850207E-04 -0.185200E-09 -0.617843E-08
  0.210000E+02  0.500000E+00  0.230000E+02  0.850207E-04 -0.188427E-09 -0.129230E-07
  0.210000E+02  0.500000E+00  0.250000E+02  0.850207E-04 -0.188383E-09 -0.187208E-07
  0.210000E+02  0.500000E+00  0.270000E+02  0.850207E-04 -0.185915E-09 -0.189262E-07
  0.210000E+02  0.500000E+00  0.290000E+02  0.850207E-04 -0.182461E-09 -0.150527E-07
  0.210000E+02  0.500000E+00  0.310000E+02  0.850207E-04 -0.178182E-09 -0.115908E-07
  0.210000E+02  0.500000E+00  0.330000E+02  0.850207E-04 -0.172987E-09 -0.874109E-08
  0.210000E+02  0.500000E+00  0.350000E+02  0.850207E-04 -0.167342E-09 -0.437283E-08
  0.210000E+02  0.500000E+00  0.370000E+02  0.850207E-04 -0.160685E-09 -0.394237E-08
  0.210000E+02  0.500000E+00  0.390000E+02  0.850207E-04 -0.152541E-09 -0.750711E-08
  0.210000E+02  0.500000E+00  0.410000E+02  0.850207E-04 -0.143391E-09 -0.104069E-07
  0.210000E+02  0.500000E+00  0.430000E+02  0.850207E-04 -0.133815E-09 -0.143449E-07
  0.210000E+02  0.500000E+00  0.450000E+02  0.850207E-04 -0.125321E-09 -0.172357E-07
  0.210000E+02  0.500000E+00  0.470000E+02  0.850207E-04 -0.120001E-09 -0.164095E-07
  0.210000E+02  0.500000E+00  0.490000E+02  0.850207E-04 -0.119082E-09 -0.128181E-07
  0.230000E+02  0.500000E+00  0.100000E+01  0.850219E-04 -0.158465E-09  0.649769E-08
  0.230000E+02  0.500000E+00  0.300000E+01  0.850219E-04 -0.176049E-09 -0.103189E-06
  0.230000E+02  0.500000E+00  0.500000E+01  0.850219E-04 -0.181829E-09 -0.302793E-07
  0.230000E+02  0.500000E+00  0.700000E+01  0.850219E-04 -0.166471E-09 -0.132176E-07
  0.230000E+02  0.500000E+00  0.900000E+01  0.850219E-04 -0.155785E-09 -0.369890E-09
  0.230000E+02  0.500000E+00  0.110000E+02  0.850219E-04 -0.148925E-09  0.129231E-07
  0.230000E+02  0.500000E+00  0.130000E+02  0.850219E-04 -0.146100E-09  0.186518E-07
  0.230000E+02  0.500000E+00  0.150000E+02  0.850219E-04 -0.145385E-09  0.217603E-07
  0.230000E+02  0.500000E+00  0.170000E+02  0.850219E-04 -0.145120E-09  0.150545E-07
  0.230000E+02  0.500000E+00  0.190000E+02  0.850219E-04 -0.144616E-09  0.940218E-08
  0.230000E+02  0.500000E+00  0.210000E+02  0.850219E-04 -0.144901E-09  0.104177E-07
  0.230000E+02  0.500000E+00  0.230000E+02  0.850219E-04 -0.146749E-09  0.828612E-08
  0.230000E+02  0.500000E+00  0.250000E+02  0.850219E-04 -0.149721E-09  0.568189E-08
  0.230000E+02  0.500000E+00  0.270000E+02  0.850219E-04 -0.152249E-09  0.113181E-08
  0.230000E+02  0.500000E+00  0.290000E+02  0.850219E-04 -0.152420E-09 -0.489579E-08
  0.230000E+02  0.500000E+00  0.310000E+02  0.850220E-04 -0.149793E-09 -0.121512E-07
  0.230000E+02  0.500000E+00  0.330000E+02  0.850220E-04 -0.144965E-09 -0.163363E-07
  0.230000E+02  0.500000E+00  0.350000E+02  0.850220E-04 -0.137783E-09 -0.212396E-07
  0.230000E+02  0.500000E+00  0.370000E+02  0.850220E-04 -0.128956E-09 -0.248708E-07
  0.230000E+02  0.500000E+00  0.390000E+02  0.850220E-04 -0.121376E-09 -0.228418E-07
  0.230000E+02  0.500000E+00  0.410000E+02  0.850220E-04 -0.116868E-09 -0.204440E-07
  0.230000E+02  0.500000E+00  0.430000E+02  0.850220E-04 -0.115749E-09 -0.147693E-07
  0.230000E+02  0.500000E+00  0.450000E+02  0.850220E-04 -0.118482E-09 -0.450879E-08
  0.230000E+02  0.500000E+00  0.470000E+02  0.850220E-04 -0.124682E-09  0.568378E-08
  0.230000E+02  0.500000E+00  0.490000E+02  0.850220E-04 -0.132768E-09  0.141192E-07
  0.250000E+02  0.500000E+00  0.100000E+01  0.850228E-04 -0.350688E-09  0.350058E-08
  0.250000E+02  0.500000E+00  0.300000E+01  0.850228E-04 -0.393012E-09  0.177521E-06
  0.250000E+02  0.500000E+00  0.500000E+01  0.850228E-04 -0.438227E-09 -0.132342E-07
  0.250000E+02  0.500000E+00  0.700000E+01  0.850228E-04 -0.439586E-09 -0.160300E-07
  0.250000E+02  0.500000E+00  0.900000E+01  0.850228E-04 -0.433714E-09 -0.239325E-07
  0.250000E+02  0.500000E+00  0.110000E+02  0.850228E-04 -0.421755E-09 -0.251332E-07
  0.250000E+02  0.500000E+00  0.130000E+02  0.850228E-04 -0.406923E-09 -0.236006E-07
  0.250000E+02  0.500000E+00  0.150000E+02  0.850228E-04 -0.391868E-09 -0.233300E-07
  0.250000E+02  0.500000E+00  0.170000E+02  0.850228E-04 -0.379293E-09 -0.164760E-07
  0.250000E+02  0.500000E+00  0.190000E+02  0.850228E-04 -0.371013E-09 -0.959574E-08
  0.250000E+02  0.500000E+00  0.210000E+02  0.850228E-04 -0.364923E-09 -0.618017E-08
  0.250000E+02  0.500000E+00  0.230000E+02  0.850228E-04 -0.359937E-09  0.446090E-09
  0.250000E+02  0.500000E+00  0.250000E+02  0.850228E-04 -0.356491E-09  0.530183E-08
  0.250000E+02  0.500000E+00  0.270000E+02  0.850228E-04 -0.354458E-09  0.634318E-08
  0.250000E+02  0.500000E+00  0.290000E+02  0.850228E-04 -0.353967E-09  0.534560E-08
  0.250000E+02  0.500000E+00  0.310000E+02  0.850228E-04 -0.355381E-09  0.744637E-08
  0.250000E+02  0.500000E+00  0.330000E+02  0.850228E-04 -0.358296E-09  0.705630E-08
  0.250000E+02  0.500000E+00  0.350000E+02  0.850228E-04 -0.362344E-09  0.479716E-08
  0.250000E+02  0.500000E+00  0.370000E+02  0.850228E-04 -0.368057E-09  0.709897E-08
  0.250000E+02  0.500000E+00  0.390000E+02  0.850228E-04 -0.374801E-09  0.118463E-07
  0.250000E+02  0.500000E+00  0.410000E+02  0.850228E-04 -0.381828E-09  0.169748E-07
  0.250000E+02  0.500000E+00  0.430000E+02  0.850228E-04 -0.388516E-09  0.190848E-07
  0.250000E+02  0.500000E+00  0.450000E+02  0.850228E-04 -0.392836E-09  0.174515E-07
  0.250000E+02  0.500000E+00  0.470000E+02  0.850228E-04 -0.393031E-09  0.133382E-07
  0.250000E+02  0.500000E+00  0.490000E+02  0.850228E-04 -0.388791E-09  0.658684E-08
  0.270000E+02  0.500000E+00  0.100000E+01  0.850228E-04 -0.373952E-09 -0.393147E-08
  0.270000E+02  0.500000E+00  0.300000E+01  0.850228E-04 -0.351394E-09  0.239425E-08
  0.270000E+02  0.500000E+00  0.500000E+01  0.850228E-04 -0.336469E-09  0.287293E-07
  0.270000E+02  0.500000E+00  0.700000E+01  0.850228E-04 -0.347640E-09  0.140953E-07
  0.270000E+02  0.500000E+00  0.900000E+01  0.850228E-04 -0.357125E-09  0.572576E-08
  0.270000E+02  0.500000E+00  0.110000E+02  0.850228E-04 -0.364970E-09 -0.455387E-08
  0.270000E+02  0.500000E+00  0.130000E+02  0.850228E-04 -0.369337E-09 -0.710579E-08
  0.270000E+02  0.500000E+00  0.150000E+02  0.850228E-04 -0.371374E-09 -0.602185E-08
  0.270000E+02  0.500000E+00  0.170000E+02  0.850228E-04 -0.372441E-09 -0.314077E-08
  0.270000E+02  0.500000E+00  0.190000E+02  0.850228E-04 -0.372704E-09 -0.241825E-08
  0.270000E+02  0.500000E+00  0.210000E+02  0.850228E-04 -0.371308E-09 -0.517073E-08
  0.270000E+02  0.500000E+00  0.230000E+02  0.850228E-04 -0.367464E-09 -0.884006E-08
  0.270000E+02  0.500000E+00  0.250000E+02  0.850228E-04 -0.361779E-09 -0.112663E-07
  0.270000E+02  0.500000E+00  0.270000E+02  0.850228E-04 -0.356212E-09 -0.843031E-08
  0.270000E+02  0.500000E+00  0.290000E+02  0.850228E-04 -0.352571E-09 -0.258589E-08
  0.270000E+02  0.500000E+00  0.310000E+02  0.850228E-04 -0.350778E-09  0.861986E-09
  0.270000E+02  0.500000E+00  0.330000E+02  0.850228E-04 -0.350618E-09  0.384850E-08
  0.270000E+02  0.500000E+00  0.350000E+02  0.850228E-04 -0.353233E-09  0.109051E-07
  0.270000E+02  0.500000E+00  0.370000E+02  0.850228E-04 -0.357757E-09  0.133664E-07
  0.270000E+02  0.500000E+00  0.390000E+02  0.850228E-04 -0.360889E-09  0.870281E-08
  0.270000E+02  0.500000E+00  0.410000E+02  0.850228E-04 -0.360424E-09  0.373468E-08
  0.270000E+02  0.500000E+00  0.430000E+02  0.850228E-04 -0.356691E-09 -0.177445E-08
  0.270000E+02  0.500000E+00  0.450000E+02  0.850228E-04 -0.350810E-09 -0.100968E-07
  0.270000E+02  0.500000E+00  0.470000E+02  0.850228E-04 -0.343633E-09 -0.185217E-07
  0.270000E+02  0.500000E+00  0.490000E+02  0.850228E-04 -0.336477E-09 -0.233518E-07
  0.290000E+02  0.500000E+00  0.100000E+01  0.850220E-04 -0.235104E-09 -0.130897E-08