title="2d xy vectors"
variables="x","y","vx","vy"
zone i=     1, j=   200, T=" 0.10000E+01"
  0.100000E+01  0.500000E+00  0.107377E-04 -0.365547E-09
  0.300000E+01  0.500000E+00  0.854982E-04 -0.118318E-08
  0.500000E+01  0.500000E+00  0.848957E-04  0.371822E-09
  0.700000E+01  0.500000E+00  0.850478E-04  0.284808E-09
  0.900000E+01  0.500000E+00  0.850107E-04 -0.804900E-09
  0.110000E+02  0.500000E+00  0.850225E-04 -0.100010E-08
  0.130000E+02  0.500000E+00  0.850204E-04 -0.104009E-09
  0.150000E+02  0.500000E+00  0.850194E-04  0.354899E-09
  0.170000E+02  0.500000E+00  0.850186E-04 -0.272146E-10
  0.190000E+02  0.500000E+00  0.850194E-04 -0.305227E-09
  0.210000E+02  0.500000E+00  0.850208E-04 -0.238513E-09
  0.230000E+02  0.500000E+00  0.850219E-04 -0.158465E-09
  0.250000E+02  0.500000E+00  0.850228E-04 -0.350688E-09
  0.270000E+02  0.500000E+00  0.850228E-04 -0.373952E-09
  0.290000E+02  0.500000E+00  0.850220E-04 -0.235104E-09
  0.310000E+02  0.500000E+00  0.850214E-04  0.190807E-10
  0.330000E+02  0.500000E+00  0.850216E-04  0.455164E-09
  0.350000E+02  0.500000E+00  0.850212E-04  0.804308E-09
  0.370000E+02  0.500000E+00  0.850215E-04 -0.145258E-09
  0.390000E+02  0.500000E+00  0.850223E-04 -0.835843E-09
  0.410000E+02  0.500000E+00  0.850236E-04 -0.840096E-09
  0.430000E+02  0.500000E+00  0.850238E-04 -0.460960E-09
  0.450000E+02  0.500000E+00  0.850249E-04 -0.329439E-09
  0.470000E+02  0.500000E+00  0.850249E-04  0.426663E-10
  0.490000E+02  0.500000E+00  0.850261E-04 -0.113608E-09
  0.510000E+02  0.500000E+00  0.850251E-04 -0.901651E-10
  0.530000E+02  0.500000E+00  0.850258E-04  0.466678E-09
  0.550000E+02  0.500000E+00  0.850236E-04  0.400156E-09
  0.570000E+02  0.500000E+00  0.850241E-04  0.389077E-09
  0.590000E+02  0.500000E+00  0.850236E-04 -0.320664E-09
  0.610000E+02  0.500000E+00  0.850230E-04 -0.128058E-09
  0.630000E+02  0.500000E+00  0.850240E-04 -0.243391E-09
  0.650000E+02  0.500000E+00  0.850244E-04 -0.260264E-09
  0.670000E+02  0.500000E+00  0.850235E-04  0.221027E-09
  0.690000E+02  0.500000E+00  0.850220E-04  0.128212E-09
  0.710000E+02  0.500000E+00  0.850200E-04 -0.233253E-10
  0.730000E+02  0.500000E+00  0.850165E-04  0.219967E-10
  0.750000E+02  0.500000E+00  0.850108E-04  0.282531E-10
  0.770000E+02  0.500000E+00  0.850011E-04 -0.263297E-09
  0.790000E+02  0.500000E+00  0.849849E-04 -0.207485E-09
  0.810000E+02  0.500000E+00  0.849552E-04 -0.148916E-09
  0.830000E+02  0.500000E+00  0.849078E-04 -0.225215E-09
  0.850000E+02  0.500000E+00  0.848344E-04 -0.172056E-09
  0.870000E+02  0.500000E+00  0.847244E-04 -0.121326E-08
  0.890000E+02  0.500000E+00  0.845670E-04  0.414416E-08
  0.910000E+02  0.500000E+00  0.843301E-04 -0.210247E-07
  0.930000E+02  0.500000E+00  0.842602E-04  0.114252E-06
  0.950000E+02  0.500000E+00  0.839857E-04 -0.572107E-06
  0.970000E+02  0.500000E+00  0.836049E-04  0.283290E-05
  0.990000E+02  0.500000E+00  0.824476E-04 -0.138308E-04
  0.101000E+03  0.500000E+00 -0.296871E-04 -0.138298E-04
  0.103000E+03  0.500000E+00 -0.333894E-04  0.283303E-05
  0.105000E+03  0.500000E+00 -0.342850E-04 -0.572837E-06
  0.107000E+03  0.500000E+00 -0.445599E-04  0.114343E-06
  0.109000E+03  0.500000E+00 -0.544272E-04 -0.219156E-07
  0.111000E+03  0.500000E+00 -0.554747E-04  0.346261E-08
  0.113000E+03  0.500000E+00 -0.538297E-04 -0.762130E-09
  0.115000E+03  0.500000E+00 -0.488083E-04  0.917367E-10
  0.117000E+03  0.500000E+00 -0.590084E-04  0.433220E-11
  0.119000E+03  0.500000E+00 -0.742970E-04  0.256508E-09
  0.121000E+03  0.500000E+00 -0.619822E-04  0.548742E-09
  0.123000E+03  0.500000E+00 -0.482779E-04  0.335137E-09
  0.125000E+03  0.500000E+00 -0.752367E-04 -0.146718E-09
  0.127000E+03  0.500000E+00 -0.935993E-04 -0.238969E-09
  0.129000E+03  0.500000E+00 -0.475445E-04 -0.171998E-09
  0.131000E+03  0.500000E+00 -0.809597E-04 -0.208518E-09
  0.133000E+03  0.500000E+00 -0.227217E-03 -0.245790E-09
  0.135000E+03  0.500000E+00 -0.225270E-03 -0.290339E-09
  0.137000E+03  0.500000E+00 -0.936587E-04 -0.266214E-09
  0.139000E+03  0.500000E+00 -0.428288E-04 -0.347097E-10
  0.141000E+03  0.500000E+00 -0.463885E-04  0.134055E-09
  0.143000E+03  0.500000E+00 -0.498826E-04  0.659194E-09
  0.145000E+03  0.500000E+00 -0.354050E-04  0.170647E-10
  0.147000E+03  0.500000E+00 -0.719735E-04 -0.340956E-10
  0.149000E+03  0.500000E+00 -0.127630E-03  0.523605E-09
  0.151000E+03  0.500000E+00 -0.646853E-04  0.684457E-09
  0.153000E+03  0.500000E+00 -0.102028E-04  0.194670E-09
  0.155000E+03  0.500000E+00 -0.243805E-04 -0.445153E-09
  0.157000E+03  0.500000E+00 -0.236494E-04 -0.369190E-09
  0.159000E+03  0.500000E+00  0.546303E-06 -0.787589E-09
  0.161000E+03  0.500000E+00  0.290247E-05 -0.114157E-08
  0.163000E+03  0.500000E+00 -0.326652E-04 -0.658837E-09
  0.165000E+03  0.500000E+00 -0.432293E-04 -0.229700E-09
  0.167000E+03  0.500000E+00 -0.177957E-04 -0.340576E-09
  0.169000E+03  0.500000E+00 -0.845566E-05  0.204870E-09
  0.171000E+03  0.500000E+00 -0.256597E-04  0.531716E-09
  0.173000E+03  0.500000E+00 -0.272189E-04  0.697812E-09
  0.175000E+03  0.500000E+00 -0.261035E-04  0.579104E-09
  0.177000E+03  0.500000E+00 -0.333256E-04  0.213843E-09
  0.179000E+03  0.500000E+00 -0.239057E-04 -0.103980E-10
  0.181000E+03  0.500000E+00 -0.104617E-04 -0.608847E-10
  0.183000E+03  0.500000E+00 -0.107764E-04 -0.105443E-08
  0.185000E+03  0.500000E+00  0.330648E-06 -0.893019E-09
  0.187000E+03  0.500000E+00  0.169636E-04  0.300509E-09
  0.189000E+03  0.500000E+00 -0.189439E-04 -0.643216E-09
  0.191000E+03  0.500000E+00 -0.556138E-04 -0.648650E-09
  0.193000E+03  0.500000E+00 -0.390652E-04  0.398628E-09
  0.195000E+03  0.500000E+00 -0.164205E-04  0.798541E-09
  0.197000E+03  0.500000E+00 -0.196907E-04  0.300461E-09
  0.199000E+03  0.500000E+00 -0.290977E-04 -0.663755E-09
  0.201000E+03  0.500000E+00 -0.935414E-06 -0.411226E-09
  0.203000E+03  0.500000E+00  0.262027E-04 -0.374021E-09
  0.205000E+03  0.500000E+00  0.132045E-04 -0.416191E-10
  0.207000E+03  0.500000E+00 -0.586008E-05 -0.108685E-09
  0.209000E+03  0.500000E+00 -0.379616E-04 -0.609955E-09
  0.211000E+03  0.500000E+00 -0.592229E-04  0.193786E-09
  0.213000E+03  0.500000E+00 -0.621066E-04  0.286026E-09
  0.215000E+03  0.500000E+00 -0.749163E-04  0.332180E-10
  0.217000E+03  0.500000E+00 -0.577913E-04  0.538818E-10
  0.219000E+03  0.500000E+00 -0.239359E-04  0.297943E-09
  0.221000E+03  0.500000E+00 -0.180727E-04  0.525738E-09
  0.223000E+03  0.500000E+00 -0.315365E-04  0.154176E-09
  0.225000E+03  0.500000E+00 -0.469073E-04 -0.332381E-09
  0.227000E+03  0.500000E+00 -0.597467E-04 -0.806271E-09
  0.229000E+03  0.500000E+00 -0.650832E-04 -0.416677E-09
  0.231000E+03  0.500000E+00 -0.543408E-04  0.491955E-09
  0.233000E+03  0.500000E+00 -0.492655E-04  0.507160E-09
  0.235000E+03  0.500000E+00 -0.509922E-04  0.415733E-09
  0.237000E+03  0.500000E+00 -0.326731E-04  0.895432E-09
  0.239000E+03  0.500000E+00 -0.243135E-04  0.712789E-09
  0.241000E+03  0.500000E+00 -0.367086E-04  0.272154E-09
  0.243000E+03  0.500000E+00 -0.422297E-04  0.464846E-09
  0.245000E+03  0.500000E+00 -0.440669E-04  0.227574E-09
  0.247000E+03  0.500000E+00 -0.508199E-04 -0.445219E-09
  0.249000E+03  0.500000E+00  0.100538E-05 -0.381181E-09
  0.251000E+03  0.500000E+00  0.598449E-04 -0.147674E-09
  0.253000E+03  0.500000E+00  0.314621E-04  0.211763E-09
  0.255000E+03  0.500000E+00  0.709814E-05  0.749613E-09
  0.257000E+03  0.500000E+00  0.586048E-05  0.486383E-09
  0.259000E+03  0.500000E+00  0.353908E-04 -0.823014E-10
  0.261000E+03  0.500000E+00  0.772675E-04  0.108347E-10
  0.263000E+03  0.500000E+00  0.567253E-04  0.345454E-09
  0.265000E+03  0.500000E+00  0.116631E-04 -0.542514E-09
  0.267000E+03  0.500000E+00 -0.113198E-04 -0.106053E-08
  0.269000E+03  0.500000E+00 -0.147228E-04 -0.141783E-09
  0.271000E+03  0.500000E+00 -0.196393E-04 -0.992406E-12
  0.273000E+03  0.500000E+00 -0.126193E-04 -0.621778E-09
  0.275000E+03  0.500000E+00  0.317040E-04 -0.664429E-09
  0.277000E+03  0.500000E+00  0.770083E-04 -0.672177E-10
  0.279000E+03  0.500000E+00  0.107640E-03  0.137532E-09
  0.281000E+03  0.500000E+00  0.906685E-04 -0.301751E-09
  0.283000E+03  0.500000E+00  0.188903E-04 -0.416661E-09
  0.285000E+03  0.500000E+00 -0.111672E-04  0.821430E-10
  0.287000E+03  0.500000E+00 -0.133629E-04  0.297616E-09
  0.289000E+03  0.500000E+00 -0.205178E-04  0.380252E-09
  0.291000E+03  0.500000E+00 -0.212763E-04  0.127940E-08
  0.293000E+03  0.500000E+00 -0.234589E-04  0.120759E-08
  0.295000E+03  0.500000E+00 -0.221817E-04  0.152579E-09
  0.297000E+03  0.500000E+00 -0.212566E-04 -0.555840E-09
  0.299000E+03  0.500000E+00 -0.204206E-04 -0.759408E-09
  0.301000E+03  0.500000E+00 -0.206182E-04  0.124157E-09
  0.303000E+03  0.500000E+00 -0.235121E-04  0.123244E-09
  0.305000E+03  0.500000E+00 -0.267996E-04 -0.821404E-09
  0.307000E+03  0.500000E+00 -0.276496E-04 -0.112882E-08
  0.309000E+03  0.500000E+00 -0.277397E-04 -0.588886E-09
  0.311000E+03  0.500000E+00 -0.281181E-04 -0.533681E-10
  0.313000E+03  0.500000E+00 -0.282861E-04 -0.611748E-09
  0.315000E+03  0.500000E+00 -0.283318E-04 -0.607578E-09
  0.317000E+03  0.500000E+00 -0.283582E-04  0.117011E-09
  0.319000E+03  0.500000E+00 -0.283716E-04  0.617059E-09
  0.321000E+03  0.500000E+00 -0.283745E-04  0.630608E-09
  0.323000E+03  0.500000E+00 -0.283759E-04 -0.197033E-09
  0.325000E+03  0.500000E+00 -0.283748E-04 -0.803419E-09
  0.327000E+03  0.500000E+00 -0.283732E-04 -0.711772E-09
  0.329000E+03  0.500000E+00 -0.283727E-04 -0.109648E-09
  0.331000E+03  0.500000E+00 -0.283733E-04  0.474260E-09
  0.333000E+03  0.500000E+00 -0.283742E-04  0.518199E-09
  0.335000E+03  0.500000E+00 -0.283748E-04  0.648937E-10
  0.337000E+03  0.500000E+00 -0.283743E-04 -0.275383E-09
  0.339000E+03  0.500000E+00 -0.283741E-04  0.347588E-10
  0.341000E+03  0.500000E+00 -0.283748E-04  0.397204E-09
  0.343000E+03  0.500000E+00 -0.283752E-04  0.174632E-09
  0.345000E+03  0.500000E+00 -0.283750E-04 -0.290145E-09
  0.347000E+03  0.500000E+00 -0.283743E-04 -0.409474E-09
  0.349000E+03  0.500000E+00 -0.283737E-04 -0.278231E-09
  0.351000E+03  0.500000E+00 -0.283736E-04  0.254309E-09
  0.353000E+03  0.500000E+00 -0.283745E-04  0.655444E-09
  0.355000E+03  0.500000E+00 -0.283758E-04  0.369436E-09
  0.357000E+03  0.500000E+00 -0.283760E-04 -0.385431E-10
  0.359000E+03  0.500000E+00 -0.283765E-04  0.329847E-09
  0.361000E+03  0.500000E+00 -0.283776E-04  0.960019E-09
  0.363000E+03  0.500000E+00 -0.283788E-04  0.737350E-09
  0.365000E+03  0.500000E+00 -0.283794E-04  0.165003E-09
  0.367000E+03  0.500000E+00 -0.283795E-04 -0.284214E-09
  0.369000E+03  0.500000E+00 -0.283792E-04 -0.336333E-09
  0.371000E+03  0.500000E+00 -0.283793E-04  0.157000E-09
  0.373000E+03  0.500000E+00 -0.283801E-04  0.602628E-09
  0.375000E+03  0.500000E+00 -0.283804E-04  0.435621E-09
  0.377000E+03  0.500000E+00 -0.283804E-04  0.159659E-09
  0.379000E+03  0.500000E+00 -0.283814E-04  0.406755E-09
  0.381000E+03  0.500000E+00 -0.283826E-04  0.155107E-09
  0.383000E+03  0.500000E+00 -0.283820E-04 -0.635267E-09
  0.385000E+03  0.500000E+00 -0.283808E-04 -0.449162E-09
  0.387000E+03  0.500000E+00 -0.283802E-04  0.216864E-09
  0.389000E+03  0.500000E+00 -0.283814E-04  0.655420E-10
  0.391000E+03  0.500000E+00 -0.283768E-04 -0.329639E-09
  0.393000E+03  0.500000E+00 -0.283929E-04 -0.263973E-09
  0.395000E+03  0.500000E+00 -0.283277E-04 -0.242136E-09
  0.397000E+03  0.500000E+00 -0.285813E-04 -0.407299E-09
  0.399000E+03  0.500000E+00 -0.275850E-04 -0.344804E-09
