title="2d yz vectors"
variables="y","z","vy","vz"
zone i=    25, j=     1, T=" 0.10000E+01"
