title="2d K section "
variables="x","z","Ksat","K(T).kr","log(K(T).kr)","porosity","Thermal K_pm"
zone i=    26, j=   201,T="Initial K"
   0.0000000E+00   0.0000000E+00   0.1000000E-04   0.1000000E-04  -0.5000000E+01   0.2000000E+00   0.1647851E+01
   0.0000000E+00   0.2000000E+01   0.5000000E-04   0.5000000E-04  -0.4301030E+01   0.2000000E+00   0.1647851E+01
   0.0000000E+00   0.4000000E+01   0.5000000E-04   0.5000000E-04  -0.4301030E+01   0.2000000E+00   0.1647851E+01
   0.0000000E+00   0.6000000E+01   0.5000000E-04   0.5000000E-04  -0.4301030E+01   0.2000000E+00   0.1647851E+01
   0.0000000E+00   0.8000000E+01   0.5000000E-04   0.5000000E-04  -0.4301030E+01   0.2000000E+00   0.1647851E+01
   0.0000000E+00   0.1000000E+02   0.5000000E-04   0.5000000E-04  -0.4301030E+01   0.2000000E+00   0.1647851E+01
   0.0000000E+00   0.1200000E+02   0.5000000E-04   0.5000000E-04  -0.4301030E+01   0.2000000E+00   0.1647851E+01
   0.0000000E+00   0.1400000E+02   0.5000000E-04   0.5000000E-04  -0.4301030E+01   0.2000000E+00   0.1647851E+01
   0.0000000E+00   0.1600000E+02   0.5000000E-04   0.5000000E-04  -0.4301030E+01   0.2000000E+00   0.1647851E+01
   0.0000000E+00   0.1800000E+02   0.5000000E-04   0.5000000E-04  -0.4301030E+01   0.2000000E+00   0.1647851E+01
   0.0000000E+00   0.2000000E+02   0.5000000E-04   0.5000000E-04  -0.4301030E+01   0.2000000E+00   0.1647851E+01
   0.0000000E+00   0.2200000E+02   0.5000000E-04   0.5000000E-04  -0.4301030E+01   0.2000000E+00   0.1647851E+01
   0.0000000E+00   0.2400000E+02   0.5000000E-04   0.5000000E-04  -0.4301030E+01   0.2000000E+00   0.1647851E+01
   0.0000000E+00   0.2600000E+02   0.5000000E-04   0.5000000E-04  -0.4301030E+01   0.2000000E+00   0.1647851E+01
   0.0000000E+00   0.2800000E+02   0.5000000E-04   0.5000000E-04  -0.4301030E+01   0.2000000E+00   0.1647851E+01
   0.0000000E+00   0.3000000E+02   0.5000000E-04   0.5000000E-04  -0.4301030E+01   0.2000000E+00   0.1647851E+01
   0.0000000E+00   0.3200000E+02   0.5000000E-04   0.5000000E-04  -0.4301030E+01   0.2000000E+00   0.1647851E+01
   0.0000000E+00   0.3400000E+02   0.5000000E-04   0.5000000E-04  -0.4301030E+01   0.2000000E+00   0.1647851E+01
   0.0000000E+00   0.3600000E+02   0.5000000E-04   0.5000000E-04  -0.4301030E+01   0.2000000E+00   0.1647851E+01
   0.0000000E+00   0.3800000E+02   0.5000000E-04   0.5000000E-04  -0.4301030E+01   0.2000000E+00   0.1647851E+01
   0.0000000E+00   0.4000000E+02   0.5000000E-04   0.5000000E-04  -0.4301030E+01   0.2000000E+00   0.1647851E+01
   0.0000000E+00   0.4200000E+02   0.5000000E-04   0.5000000E-04  -0.4301030E+01   0.2000000E+00   0.1647851E+01
   0.0000000E+00   0.4400000E+02   0.5000000E-04   0.5000000E-04  -0.4301030E+01   0.2000000E+00   0.1647851E+01
   0.0000000E+00   0.4600000E+02   0.5000000E-04   0.5000000E-04  -0.4301030E+01   0.2000000E+00   0.1647851E+01
   0.0000000E+00   0.4800000E+02   0.5000000E-04   0.5000000E-04  -0.4301030E+01   0.2000000E+00   0.1647851E+01
   0.0000000E+00   0.5000000E+02   0.5000000E-04   0.5000000E-04  -0.4301030E+01   0.2000000E+00   0.1647851E+01
   0.2000000E+01   0.0000000E+00   0.5000000E-04   0.5000000E-04  -0.4301030E+01   0.2000000E+00   0.1647851E+01
   0.2000000E+01   0.2000000E+01   0.5000000E-04   0.5000000E-04  -0.4301030E+01   0.2000000E+00   0.1647851E+01
   0.2000000E+01   0.4000000E+01   0.5000000E-04   0.5000000E-04  -0.4301030E+01   0.2000000E+00   0.1647851E+01
   0.2000000E+01   0.6000000E+01   0.5000000E-04   0.5000000E-04  -0.4301030E+01   0.2000000E+00   0.1647851E+01
   0.2000000E+01   0.8000000E+01   0.5000000E-04   0.5000000E-04  -0.4301030E+01   0.2000000E+00   0.1647851E+01
   0.2000000E+01   0.1000000E+02   0.5000000E-04   0.5000000E-04  -0.4301030E+01   0.2000000E+00   0.1647851E+01
   0.2000000E+01   0.1200000E+02   0.5000000E-04   0.5000000E-04  -0.4301030E+01   0.2000000E+00   0.1647851E+01
   0.2000000E+01   0.1400000E+02   0.5000000E-04   0.5000000E-04  -0.4301030E+01   0.2000000E+00   0.1647851E+01
   0.2000000E+01   0.1600000E+02   0.5000000E-04   0.5000000E-04  -0.4301030E+01   0.2000000E+00   0.1647851E+01
   0.2000000E+01   0.1800000E+02   0.5000000E-04   0.5000000E-04  -0.4301030E+01   0.2000000E+00   0.1647851E+01
   0.2000000E+01   0.2000000E+02   0.5000000E-04   0.5000000E-04  -0.4301030E+01   0.2000000E+00   0.1647851E+01
   0.2000000E+01   0.2200000E+02   0.5000000E-04   0.5000000E-04  -0.4301030E+01   0.2000000E+00   0.1647851E+01
   0.2000000E+01   0.2400000E+02   0.5000000E-04   0.5000000E-04  -0.4301030E+01   0.2000000E+00   0.1647851E+01
   0.2000000E+01   0.2600000E+02   0.5000000E-04   0.5000000E-04  -0.4301030E+01   0.2000000E+00   0.1647851E+01
   0.2000000E+01   0.2800000E+02   0.5000000E-04   0.5000000E-04  -0.4301030E+01   0.2000000E+00   0.1647851E+01
   0.2000000E+01   0.3000000E+02   0.5000000E-04   0.5000000E-04  -0.4301030E+01   0.2000000E+00   0.1647851E+01
   0.2000000E+01   0.3200000E+02   0.5000000E-04   0.5000000E-04  -0.4301030E+01   0.2000000E+00   0.1647851E+01
   0.2000000E+01   0.3400000E+02   0.5000000E-04   0.5000000E-04  -0.4301030E+01   0.2000000E+00   0.1647851E+01
   0.2000000E+01   0.3600000E+02   0.5000000E-04   0.5000000E-04  -0.4301030E+01   0.2000000E+00   0.1647851E+01
   0.2000000E+01   0.3800000E+02   0.5000000E-04   0.5000000E-04  -0.4301030E+01   0.2000000E+00   0.1647851E+01
   0.2000000E+01   0.4000000E+02   0.5000000E-04   0.5000000E-04  -0.4301030E+01   0.2000000E+00   0.1647851E+01
   0.2000000E+01   0.4200000E+02   0.5000000E-04   0.5000000E-04  -0.4301030E+01   0.2000000E+00   0.1647851E+01
   0.2000000E+01   0.4400000E+02   0.5000000E-04   0.5000000E-04  -0.4301030E+01   0.2000000E+00   0.1647851E+01
   0.2000000E+01   0.4600000E+02   0.5000000E-04   0.5000000E-04  -0.4301030E+01   0.2000000E+00   0.1647851E+01
   0.2000000E+01   0.4800000E+02   0.5000000E-04   0.5000000E-04  -0.4301030E+01   0.2000000E+00   0.1647851E+01
   0.2000000E+01   0.5000000E+02   0.5000000E-04   0.5000000E-04  -0.4301030E+01   0.2000000E+00   0.1647851E+01
   0.4000000E+01   0.0000000E+00   0.5000000E-04   0.5000000E-04  -0.4301030E+01   0.2000000E+00   0.1647851E+01
   0.4000000E+01   0.2000000E+01   0.5000000E-04   0.5000000E-04  -0.4301030E+01   0.2000000E+00   0.1647851E+01
   0.4000000E+01   0.4000000E+01   0.5000000E-04   0.5000000E-04  -0.4301030E+01   0.2000000E+00   0.1647851E+01
   0.4000000E+01   0.6000000E+01   0.5000000E-04   0.5000000E-04  -0.4301030E+01   0.2000000E+00   0.1647851E+01
   0.4000000E+01   0.8000000E+01   0.5000000E-04   0.5000000E-04  -0.4301030E+01   0.2000000E+00   0.1647851E+01
   0.4000000E+01   0.1000000E+02   0.5000000E-04   0.5000000E-04  -0.4301030E+01   0.2000000E+00   0.1647851E+01
   0.4000000E+01   0.1200000E+02   0.5000000E-04   0.5000000E-04  -0.4301030E+01   0.2000000E+00   0.1647851E+01
   0.4000000E+01   0.1400000E+02   0.5000000E-04   0.5000000E-04  -0.4301030E+01   0.2000000E+00   0.1647851E+01
   0.4000000E+01   0.1600000E+02   0.5000000E-04   0.5000000E-04  -0.4301030E+01   0.2000000E+00   0.1647851E+01
   0.4000000E+01   0.1800000E+02   0.5000000E-04   0.5000000E-04  -0.4301030E+01   0.2000000E+00   0.1647851E+01
   0.4000000E+01   0.2000000E+02   0.5000000E-04   0.5000000E-04  -0.4301030E+01   0.2000000E+00   0.1647851E+01
   0.4000000E+01   0.2200000E+02   0.5000000E-04   0.5000000E-04  -0.4301030E+01   0.2000000E+00   0.1647851E+01
   0.4000000E+01   0.2400000E+02   0.5000000E-04   0.5000000E-04  -0.4301030E+01   0.2000000E+00   0.1647851E+01
   0.4000000E+01   0.2600000E+02   0.5000000E-04   0.5000000E-04  -0.4301030E+01   0.2000000E+00   0.1647851E+01
   0.4000000E+01   0.2800000E+02   0.5000000E-04   0.5000000E-04  -0.4301030E+01   0.2000000E+00   0.1647851E+01
   0.4000000E+01   0.3000000E+02   0.5000000E-04   0.5000000E-04  -0.4301030E+01   0.2000000E+00   0.1647851E+01
   0.4000000E+01   0.3200000E+02   0.5000000E-04   0.5000000E-04  -0.4301030E+01   0.2000000E+00   0.1647851E+01
   0.4000000E+01   0.3400000E+02   0.5000000E-04   0.5000000E-04  -0.4301030E+01   0.2000000E+00   0.1647851E+01
   0.4000000E+01   0.3600000E+02   0.5000000E-04   0.5000000E-04  -0.4301030E+01   0.2000000E+00   0.1647851E+01
   0.4000000E+01   0.3800000E+02   0.5000000E-04   0.5000000E-04  -0.4301030E+01   0.2000000E+00   0.1647851E+01
   0.4000000E+01   0.4000000E+02   0.5000000E-04   0.5000000E-04  -0.4301030E+01   0.2000000E+00   0.1647851E+01
   0.4000000E+01   0.4200000E+02   0.5000000E-04   0.5000000E-04  -0.4301030E+01   0.2000000E+00   0.1647851E+01
   0.4000000E+01   0.4400000E+02   0.5000000E-04   0.5000000E-04  -0.4301030E+01   0.2000000E+00   0.1647851E+01
   0.4000000E+01   0.4600000E+02   0.5000000E-04   0.5000000E-04  -0.4301030E+01   0.2000000E+00   0.1647851E+01
   0.4000000E+01   0.4800000E+02   0.5000000E-04   0.5000000E-04  -0.4301030E+01   0.2000000E+00   0.1647851E+01
   0.4000000E+01   0.5000000E+02   0.5000000E-04   0.5000000E-04  -0.4301030E+01   0.2000000E+00   0.1647851E+01
   0.6000000E+01   0.0000000E+00   0.5000000E-04   0.5000000E-04  -0.4301030E+01   0.2000000E+00   0.1647851E+01
   0.6000000E+01   0.2000000E+01   0.5000000E-04   0.5000000E-04  -0.4301030E+01   0.2000000E+00   0.1647851E+01
   0.6000000E+01   0.4000000E+01   0.5000000E-04   0.5000000E-04  -0.4301030E+01   0.2000000E+00   0.1647851E+01
   0.6000000E+01   0.6000000E+01   0.5000000E-04   0.5000000E-04  -0.4301030E+01   0.2000000E+00   0.1647851E+01
   0.6000000E+01   0.8000000E+01   0.5000000E-04   0.5000000E-04  -0.4301030E+01   0.2000000E+00   0.1647851E+01
   0.6000000E+01   0.1000000E+02   0.5000000E-04   0.5000000E-04  -0.4301030E+01   0.2000000E+00   0.1647851E+01
   0.6000000E+01   0.1200000E+02   0.5000000E-04   0.5000000E-04  -0.4301030E+01   0.2000000E+00   0.1647851E+01
   0.6000000E+01   0.1400000E+02   0.5000000E-04   0.5000000E-04  -0.4301030E+01   0.2000000E+00   0.1647851E+01
   0.6000000E+01   0.1600000E+02   0.5000000E-04   0.5000000E-04  -0.4301030E+01   0.2000000E+00   0.1647851E+01
   0.6000000E+01   0.1800000E+02   0.5000000E-04   0.5000000E-04  -0.4301030E+01   0.2000000E+00   0.1647851E+01
   0.6000000E+01   0.2000000E+02   0.5000000E-04   0.5000000E-04  -0.4301030E+01   0.2000000E+00   0.1647851E+01
   0.6000000E+01   0.2200000E+02   0.5000000E-04   0.5000000E-04  -0.4301030E+01   0.2000000E+00   0.1647851E+01
   0.6000000E+01   0.2400000E+02   0.5000000E-04   0.5000000E-04  -0.4301030E+01   0.2000000E+00   0.1647851E+01
   0.6000000E+01   0.2600000E+02   0.5000000E-04   0.5000000E-04  -0.4301030E+01   0.2000000E+00   0.1647851E+01
   0.6000000E+01   0.2800000E+02   0.5000000E-04   0.5000000E-04  -0.4301030E+01   0.2000000E+00   0.1647851E+01
   0.6000000E+01   0.3000000E+02   0.5000000E-04   0.5000000E-04  -0.4301030E+01   0.2000000E+00   0.1647851E+01
   0.6000000E+01   0.3200000E+02   0.5000000E-04   0.5000000E-04  -0.4301030E+01   0.2000000E+00   0.1647851E+01
   0.6000000E+01   0.3400000E+02   0.5000000E-04   0.5000000E-04  -0.4301030E+01   0.2000000E+00   0.1647851E+01
   0.6000000E+01   0.3600000E+02   0.5000000E-04   0.5000000E-04  -0.4301030E+01   0.2000000E+00   0.1647851E+01
   0.6000000E+01   0.3800000E+02   0.5000000E-04   0.5000000E-04  -0.4301030E+01   0.2000000E+00   0.1647851E+01
   0.6000000E+01   0.4000000E+02   0.5000000E-04   0.5000000E-04  -0.4301030E+01   0.2000000E+00   0.1647851E+01
   0.6000000E+01   0.4200000E+02   0.5000000E-04   0.5000000E-04  -0.4301030E+01   0.2000000E+00   0.1647851E+01
   0.6000000E+01   0.4400000E+02   0.5000000E-04   0.5000000E-04  -0.4301030E+01   0.2000000E+00   0.1647851E+01
   0.6000000E+01   0.4600000E+02   0.5000000E-04   0.5000000E-04  -0.4301030E+01   0.2000000E+00   0.1647851E+01
   0.6000000E+01   0.4800000E+02   0.5000000E-04   0.5000000E-04  -0.4301030E+01   0.2000000E+00   0.1647851E+01
   0.6000000E+01   0.5000000E+02   0.5000000E-04   0.5000000E-04  -0.4301030E+01   0.2000000E+00   0.1647851E+01
   0.8000000E+01   0.0000000E+00   0.5000000E-04   0.5000000E-04  -0.4301030E+01   0.2000000E+00   0.1647851E+01
   0.8000000E+01   0.2000000E+01   0.5000000E-04   0.5000000E-04  -0.4301030E+01   0.2000000E+00   0.1647851E+01
   0.8000000E+01   0.4000000E+01   0.5000000E-04   0.5000000E-04  -0.4301030E+01   0.2000000E+00   0.1647851E+01
   0.8000000E+01   0.6000000E+01   0.5000000E-04   0.5000000E-04  -0.4301030E+01   0.2000000E+00   0.1647851E+01
   0.8000000E+01   0.8000000E+01   0.5000000E-04   0.5000000E-04  -0.4301030E+01   0.2000000E+00   0.1647851E+01
   0.8000000E+01   0.1000000E+02   0.5000000E-04   0.5000000E-04  -0.4301030E+01   0.2000000E+00   0.1647851E+01
   0.8000000E+01   0.1200000E+02   0.5000000E-04   0.5000000E-04  -0.4301030E+01   0.2000000E+00   0.1647851E+01
   0.8000000E+01   0.1400000E+02   0.5000000E-04   0.5000000E-04  -0.4301030E+01   0.2000000E+00   0.1647851E+01
   0.8000000E+01   0.1600000E+02   0.5000000E-04   0.5000000E-04  -0.4301030E+01   0.2000000E+00   0.1647851E+01
   0.8000000E+01   0.1800000E+02   0.5000000E-04   0.5000000E-04  -0.4301030E+01   0.2000000E+00   0.1647851E+01
   0.8000000E+01   0.2000000E+02   0.5000000E-04   0.5000000E-04  -0.4301030E+01   0.2000000E+00   0.1647851E+01
   0.8000000E+01   0.2200000E+02   0.5000000E-04   0.5000000E-04  -0.4301030E+01   0.2000000E+00   0.1647851E+01
   0.8000000E+01   0.2400000E+02   0.5000000E-04   0.5000000E-04  -0.4301030E+01   0.2000000E+00   0.1647851E+01
   0.8000000E+01   0.2600000E+02   0.5000000E-04   0.5000000E-04  -0.4301030E+01   0.2000000E+00   0.1647851E+01
   0.8000000E+01   0.2800000E+02   0.5000000E-04   0.5000000E-04  -0.4301030E+01   0.2000000E+00   0.1647851E+01
   0.8000000E+01   0.3000000E+02   0.5000000E-04   0.5000000E-04  -0.4301030E+01   0.2000000E+00   0.1647851E+01
   0.8000000E+01   0.3200000E+02   0.5000000E-04   0.5000000E-04  -0.4301030E+01   0.2000000E+00   0.1647851E+01
   0.8000000E+01   0.3400000E+02   0.5000000E-04   0.5000000E-04  -0.4301030E+01   0.2000000E+00   0.1647851E+01
   0.8000000E+01   0.3600000E+02   0.5000000E-04   0.5000000E-04  -0.4301030E+01   0.2000000E+00   0.1647851E+01
   0.8000000E+01   0.3800000E+02   0.5000000E-04   0.5000000E-04  -0.4301030E+01   0.2000000E+00   0.1647851E+01
   0.8000000E+01   0.4000000E+02   0.5000000E-04   0.5000000E-04  -0.4301030E+01   0.2000000E+00   0.1647851E+01
   0.8000000E+01   0.4200000E+02   0.5000000E-04   0.5000000E-04  -0.4301030E+01   0.2000000E+00   0.1647851E+01
   0.8000000E+01   0.4400000E+02   0.5000000E-04   0.5000000E-04  -0.4301030E+01   0.2000000E+00   0.1647851E+01
   0.8000000E+01   0.4600000E+02   0.5000000E-04   0.5000000E-04  -0.4301030E+01   0.2000000E+00   0.1647851E+01
   0.8000000E+01   0.4800000E+02   0.5000000E-04   0.5000000E-04  -0.4301030E+01   0.2000000E+00   0.1647851E+01
   0.8000000E+01   0.5000000E+02   0.5000000E-04   0.5000000E-04  -0.4301030E+01   0.2000000E+00   0.1647851E+01
   0.1000000E+02   0.0000000E+00   0.5000000E-04   0.5000000E-04  -0.4301030E+01   0.2000000E+00   0.1647851E+01
   0.1000000E+02   0.2000000E+01   0.5000000E-04   0.5000000E-04  -0.4301030E+01   0.2000000E+00   0.1647851E+01
   0.1000000E+02   0.4000000E+01   0.5000000E-04   0.5000000E-04  -0.4301030E+01   0.2000000E+00   0.1647851E+01
   0.1000000E+02   0.6000000E+01   0.5000000E-04   0.5000000E-04  -0.4301030E+01   0.2000000E+00   0.1647851E+01
   0.1000000E+02   0.8000000E+01   0.5000000E-04   0.5000000E-04  -0.4301030E+01   0.2000000E+00   0.1647851E+01
   0.1000000E+02   0.1000000E+02   0.5000000E-04   0.5000000E-04  -0.4301030E+01   0.2000000E+00   0.1647851E+01
   0.1000000E+02   0.1200000E+02   0.5000000E-04   0.5000000E-04  -0.4301030E+01   0.2000000E+00   0.1647851E+01
   0.1000000E+02   0.1400000E+02   0.5000000E-04   0.5000000E-04  -0.4301030E+01   0.2000000E+00   0.1647851E+01
   0.1000000E+02   0.1600000E+02   0.5000000E-04   0.5000000E-04  -0.4301030E+01   0.2000000E+00   0.1647851E+01
   0.1000000E+02   0.1800000E+02   0.5000000E-04   0.5000000E-04  -0.4301030E+01   0.2000000E+00   0.1647851E+01
   0.1000000E+02   0.2000000E+02   0.5000000E-04   0.5000000E-04  -0.4301030E+01   0.2000000E+00   0.1647851E+01
   0.1000000E+02   0.2200000E+02   0.5000000E-04   0.5000000E-04  -0.4301030E+01   0.2000000E+00   0.1647851E+01
   0.1000000E+02   0.2400000E+02   0.5000000E-04   0.5000000E-04  -0.4301030E+01   0.2000000E+00   0.1647851E+01
   0.1000000E+02   0.2600000E+02   0.5000000E-04   0.5000000E-04  -0.4301030E+01   0.2000000E+00   0.1647851E+01
   0.1000000E+02   0.2800000E+02   0.5000000E-04   0.5000000E-04  -0.4301030E+01   0.2000000E+00   0.1647851E+01
   0.1000000E+02   0.3000000E+02   0.5000000E-04   0.5000000E-04  -0.4301030E+01   0.2000000E+00   0.1647851E+01
   0.1000000E+02   0.3200000E+02   0.5000000E-04   0.5000000E-04  -0.4301030E+01   0.2000000E+00   0.1647851E+01
   0.1000000E+02   0.3400000E+02   0.5000000E-04   0.5000000E-04  -0.4301030E+01   0.2000000E+00   0.1647851E+01
   0.1000000E+02   0.3600000E+02   0.5000000E-04   0.5000000E-04  -0.4301030E+01   0.2000000E+00   0.1647851E+01
   0.1000000E+02   0.3800000E+02   0.5000000E-04   0.5000000E-04  -0.4301030E+01   0.2000000E+00   0.1647851E+01
   0.1000000E+02   0.4000000E+02   0.5000000E-04   0.5000000E-04  -0.4301030E+01   0.2000000E+00   0.1647851E+01
   0.1000000E+02   0.4200000E+02   0.5000000E-04   0.5000000E-04  -0.4301030E+01   0.2000000E+00   0.1647851E+01
   0.1000000E+02   0.4400000E+02   0.5000000E-04   0.5000000E-04  -0.4301030E+01   0.2000000E+00   0.1647851E+01
   0.1000000E+02   0.4600000E+02   0.5000000E-04   0.5000000E-04  -0.4301030E+01   0.2000000E+00   0.1647851E+01
   0.1000000E+02   0.4800000E+02   0.5000000E-04   0.5000000E-04  -0.4301030E+01   0.2000000E+00   0.1647851E+01
   0.1000000E+02   0.5000000E+02   0.5000000E-04   0.5000000E-04  -0.4301030E+01   0.2000000E+00   0.1647851E+01
   0.1200000E+02   0.0000000E+00   0.5000000E-04   0.5000000E-04  -0.4301030E+01   0.2000000E+00   0.1647851E+01
   0.1200000E+02   0.2000000E+01   0.5000000E-04   0.5000000E-04  -0.4301030E+01   0.2000000E+00   0.1647851E+01
   0.1200000E+02   0.4000000E+01   0.5000000E-04   0.5000000E-04  -0.4301030E+01   0.2000000E+00   0.1647851E+01
   0.1200000E+02   0.6000000E+01   0.5000000E-04   0.5000000E-04  -0.4301030E+01   0.2000000E+00   0.1647851E+01
   0.1200000E+02   0.8000000E+01   0.5000000E-04   0.5000000E-04  -0.4301030E+01   0.2000000E+00   0.1647851E+01
   0.1200000E+02   0.1000000E+02   0.5000000E-04   0.5000000E-04  -0.4301030E+01   0.2000000E+00   0.1647851E+01
   0.1200000E+02   0.1200000E+02   0.5000000E-04   0.5000000E-04  -0.4301030E+01   0.2000000E+00   0.1647851E+01
   0.1200000E+02   0.1400000E+02   0.5000000E-04   0.5000000E-04  -0.4301030E+01   0.2000000E+00   0.1647851E+01
   0.1200000E+02   0.1600000E+02   0.5000000E-04   0.5000000E-04  -0.4301030E+01   0.2000000E+00   0.1647851E+01
   0.1200000E+02   0.1800000E+02   0.5000000E-04   0.5000000E-04  -0.4301030E+01   0.2000000E+00   0.1647851E+01
   0.1200000E+02   0.2000000E+02   0.5000000E-04   0.5000000E-04  -0.4301030E+01   0.2000000E+00   0.1647851E+01
   0.1200000E+02   0.2200000E+02   0.5000000E-04   0.5000000E-04  -0.4301030E+01   0.2000000E+00   0.1647851E+01
   0.1200000E+02   0.2400000E+02   0.5000000E-04   0.5000000E-04  -0.4301030E+01   0.2000000E+00   0.1647851E+01
   0.1200000E+02   0.2600000E+02   0.5000000E-04   0.5000000E-04  -0.4301030E+01   0.2000000E+00   0.1647851E+01
   0.1200000E+02   0.2800000E+02   0.5000000E-04   0.5000000E-04  -0.4301030E+01   0.2000000E+00   0.1647851E+01
   0.1200000E+02   0.3000000E+02   0.5000000E-04   0.5000000E-04  -0.4301030E+01   0.2000000E+00   0.1647851E+01
   0.1200000E+02   0.3200000E+02   0.5000000E-04   0.5000000E-04  -0.4301030E+01   0.2000000E+00   0.1647851E+01
   0.1200000E+02   0.3400000E+02   0.5000000E-04   0.5000000E-04  -0.4301030E+01   0.2000000E+00   0.1647851E+01
   0.1200000E+02   0.3600000E+02   0.5000000E-04   0.5000000E-04  -0.4301030E+01   0.2000000E+00   0.1647851E+01
   0.1200000E+02   0.3800000E+02   0.5000000E-04   0.5000000E-04  -0.4301030E+01   0.2000000E+00   0.1647851E+01
   0.1200000E+02   0.4000000E+02   0.5000000E-04   0.5000000E-04  -0.4301030E+01   0.2000000E+00   0.1647851E+01
   0.1200000E+02   0.4200000E+02   0.5000000E-04   0.5000000E-04  -0.4301030E+01   0.2000000E+00   0.1647851E+01
   0.1200000E+02   0.4400000E+02   0.5000000E-04   0.5000000E-04  -0.4301030E+01   0.2000000E+00   0.1647851E+01
   0.1200000E+02   0.4600000E+02   0.5000000E-04   0.5000000E-04  -0.4301030E+01   0.2000000E+00   0.1647851E+01
   0.1200000E+02   0.4800000E+02   0.5000000E-04   0.5000000E-04  -0.4301030E+01   0.2000000E+00   0.1647851E+01
   0.1200000E+02   0.5000000E+02   0.5000000E-04   0.5000000E-04  -0.4301030E+01   0.2000000E+00   0.1647851E+01
   0.1400000E+02   0.0000000E+00   0.5000000E-04   0.5000000E-04  -0.4301030E+01   0.2000000E+00   0.1647851E+01
   0.1400000E+02   0.2000000E+01   0.5000000E-04   0.5000000E-04  -0.4301030E+01   0.2000000E+00   0.1647851E+01
   0.1400000E+02   0.4000000E+01   0.5000000E-04   0.5000000E-04  -0.4301030E+01   0.2000000E+00   0.1647851E+01
   0.1400000E+02   0.6000000E+01   0.5000000E-04   0.5000000E-04  -0.4301030E+01   0.2000000E+00   0.1647851E+01
   0.1400000E+02   0.8000000E+01   0.5000000E-04   0.5000000E-04  -0.4301030E+01   0.2000000E+00   0.1647851E+01
   0.1400000E+02   0.1000000E+02   0.5000000E-04   0.5000000E-04  -0.4301030E+01   0.2000000E+00   0.1647851E+01
   0.1400000E+02   0.1200000E+02   0.5000000E-04   0.5000000E-04  -0.4301030E+01   0.2000000E+00   0.1647851E+01
   0.1400000E+02   0.1400000E+02   0.5000000E-04   0.5000000E-04  -0.4301030E+01   0.2000000E+00   0.1647851E+01
   0.1400000E+02   0.1600000E+02   0.5000000E-04   0.5000000E-04  -0.4301030E+01   0.2000000E+00   0.1647851E+01
   0.1400000E+02   0.1800000E+02   0.5000000E-04   0.5000000E-04  -0.4301030E+01   0.2000000E+00   0.1647851E+01
   0.1400000E+02   0.2000000E+02   0.5000000E-04   0.5000000E-04  -0.4301030E+01   0.2000000E+00   0.1647851E+01
   0.1400000E+02   0.2200000E+02   0.5000000E-04   0.5000000E-04  -0.4301030E+01   0.2000000E+00   0.1647851E+01
   0.1400000E+02   0.2400000E+02   0.5000000E-04   0.5000000E-04  -0.4301030E+01   0.2000000E+00   0.1647851E+01
   0.1400000E+02   0.2600000E+02   0.5000000E-04   0.5000000E-04  -0.4301030E+01   0.2000000E+00   0.1647851E+01
   0.1400000E+02   0.2800000E+02   0.5000000E-04   0.5000000E-04  -0.4301030E+01   0.2000000E+00   0.1647851E+01
   0.1400000E+02   0.3000000E+02   0.5000000E-04   0.5000000E-04  -0.4301030E+01   0.2000000E+00   0.1647851E+01
   0.1400000E+02   0.3200000E+02   0.5000000E-04   0.5000000E-04  -0.4301030E+01   0.2000000E+00   0.1647851E+01
   0.1400000E+02   0.3400000E+02   0.5000000E-04   0.5000000E-04  -0.4301030E+01   0.2000000E+00   0.1647851E+01
   0.1400000E+02   0.3600000E+02   0.5000000E-04   0.5000000E-04  -0.4301030E+01   0.2000000E+00   0.1647851E+01
   0.1400000E+02   0.3800000E+02   0.5000000E-04   0.5000000E-04  -0.4301030E+01   0.2000000E+00   0.1647851E+01
   0.1400000E+02   0.4000000E+02   0.5000000E-04   0.5000000E-04  -0.4301030E+01   0.2000000E+00   0.1647851E+01
   0.1400000E+02   0.4200000E+02   0.5000000E-04   0.5000000E-04  -0.4301030E+01   0.2000000E+00   0.1647851E+01
   0.1400000E+02   0.4400000E+02   0.5000000E-04   0.5000000E-04  -0.4301030E+01   0.2000000E+00   0.1647851E+01
   0.1400000E+02   0.4600000E+02   0.5000000E-04   0.5000000E-04  -0.4301030E+01   0.2000000E+00   0.1647851E+01
   0.1400000E+02   0.4800000E+02   0.5000000E-04   0.5000000E-04  -0.4301030E+01   0.2000000E+00   0.1647851E+01
   0.1400000E+02   0.5000000E+02   0.5000000E-04   0.5000000E-04  -0.4301030E+01   0.2000000E+00   0.1647851E+01
   0.1600000E+02   0.0000000E+00   0.5000000E-04   0.5000000E-04  -0.4301030E+01   0.2000000E+00   0.1647851E+01
   0.1600000E+02   0.2000000E+01   0.5000000E-04   0.5000000E-04  -0.4301030E+01   0.2000000E+00   0.1647851E+01
   0.1600000E+02   0.4000000E+01   0.5000000E-04   0.5000000E-04  -0.4301030E+01   0.2000000E+00   0.1647851E+01
   0.1600000E+02   0.6000000E+01   0.5000000E-04   0.5000000E-04  -0.4301030E+01   0.2000000E+00   0.1647851E+01
   0.1600000E+02   0.8000000E+01   0.5000000E-04   0.5000000E-04  -0.4301030E+01   0.2000000E+00   0.1647851E+01
   0.1600000E+02   0.1000000E+02   0.5000000E-04   0.5000000E-04  -0.4301030E+01   0.2000000E+00   0.1647851E+01
   0.1600000E+02   0.1200000E+02   0.5000000E-04   0.5000000E-04  -0.4301030E+01   0.2000000E+00   0.1647851E+01
   0.1600000E+02   0.1400000E+02   0.5000000E-04   0.5000000E-04  -0.4301030E+01   0.2000000E+00   0.1647851E+01
   0.1600000E+02   0.1600000E+02   0.5000000E-04   0.5000000E-04  -0.4301030E+01   0.2000000E+00   0.1647851E+01
   0.1600000E+02   0.1800000E+02   0.5000000E-04   0.5000000E-04  -0.4301030E+01   0.2000000E+00   0.1647851E+01
   0.1600000E+02   0.2000000E+02   0.5000000E-04   0.5000000E-04  -0.4301030E+01   0.2000000E+00   0.1647851E+01
   0.1600000E+02   0.2200000E+02   0.5000000E-04   0.5000000E-04  -0.4301030E+01   0.2000000E+00   0.1647851E+01
   0.1600000E+02   0.2400000E+02   0.5000000E-04   0.5000000E-04  -0.4301030E+01   0.2000000E+00   0.1647851E+01
   0.1600000E+02   0.2600000E+02   0.5000000E-04   0.5000000E-04  -0.4301030E+01   0.2000000E+00   0.1647851E+01
   0.1600000E+02   0.2800000E+02   0.5000000E-04   0.5000000E-04  -0.4301030E+01   0.2000000E+00   0.1647851E+01
   0.1600000E+02   0.3000000E+02   0.5000000E-04   0.5000000E-04  -0.4301030E+01   0.2000000E+00   0.1647851E+01
   0.1600000E+02   0.3200000E+02   0.5000000E-04   0.5000000E-04  -0.4301030E+01   0.2000000E+00   0.1647851E+01
   0.1600000E+02   0.3400000E+02   0.5000000E-04   0.5000000E-04  -0.4301030E+01   0.2000000E+00   0.1647851E+01
   0.1600000E+02   0.3600000E+02   0.5000000E-04   0.5000000E-04  -0.4301030E+01   0.2000000E+00   0.1647851E+01
   0.1600000E+02   0.3800000E+02   0.5000000E-04   0.5000000E-04  -0.4301030E+01   0.2000000E+00   0.1647851E+01
   0.1600000E+02   0.4000000E+02   0.5000000E-04   0.5000000E-04  -0.4301030E+01   0.2000000E+00   0.1647851E+01
   0.1600000E+02   0.4200000E+02   0.5000000E-04   0.5000000E-04  -0.4301030E+01   0.2000000E+00   0.1647851E+01
   0.1600000E+02   0.4400000E+02   0.5000000E-04   0.5000000E-04  -0.4301030E+01   0.2000000E+00   0.1647851E+01
   0.1600000E+02   0.4600000E+02   0.5000000E-04   0.5000000E-04  -0.4301030E+01   0.2000000E+00   0.1647851E+01
   0.1600000E+02   0.4800000E+02   0.5000000E-04   0.5000000E-04  -0.4301030E+01   0.2000000E+00   0.1647851E+01
   0.1600000E+02   0.5000000E+02   0.5000000E-04   0.5000000E-04  -0.4301030E+01   0.2000000E+00   0.1647851E+01
   0.1800000E+02   0.0000000E+00   0.5000000E-04   0.5000000E-04  -0.4301030E+01   0.2000000E+00   0.1647851E+01
   0.1800000E+02   0.2000000E+01   0.5000000E-04   0.5000000E-04  -0.4301030E+01   0.2000000E+00   0.1647851E+01
   0.1800000E+02   0.4000000E+01   0.5000000E-04   0.5000000E-04  -0.4301030E+01   0.2000000E+00   0.1647851E+01
   0.1800000E+02   0.6000000E+01   0.5000000E-04   0.5000000E-04  -0.4301030E+01   0.2000000E+00   0.1647851E+01
   0.1800000E+02   0.8000000E+01   0.5000000E-04   0.5000000E-04  -0.4301030E+01   0.2000000E+00   0.1647851E+01
   0.1800000E+02   0.1000000E+02   0.5000000E-04   0.5000000E-04  -0.4301030E+01   0.2000000E+00   0.1647851E+01
   0.1800000E+02   0.1200000E+02   0.5000000E-04   0.5000000E-04  -0.4301030E+01   0.2000000E+00   0.1647851E+01
   0.1800000E+02   0.1400000E+02   0.5000000E-04   0.5000000E-04  -0.4301030E+01   0.2000000E+00   0.1647851E+01
   0.1800000E+02   0.1600000E+02   0.5000000E-04   0.5000000E-04  -0.4301030E+01   0.2000000E+00   0.1647851E+01
   0.1800000E+02   0.1800000E+02   0.5000000E-04   0.5000000E-04  -0.4301030E+01   0.2000000E+00   0.1647851E+01
   0.1800000E+02   0.2000000E+02   0.5000000E-04   0.5000000E-04  -0.4301030E+01   0.2000000E+00   0.1647851E+01
   0.1800000E+02   0.2200000E+02   0.5000000E-04   0.5000000E-04  -0.4301030E+01   0.2000000E+00   0.1647851E+01
   0.1800000E+02   0.2400000E+02   0.5000000E-04   0.5000000E-04  -0.4301030E+01   0.2000000E+00   0.1647851E+01
   0.1800000E+02   0.2600000E+02   0.5000000E-04   0.5000000E-04  -0.4301030E+01   0.2000000E+00   0.1647851E+01
   0.1800000E+02   0.2800000E+02   0.5000000E-04   0.5000000E-04  -0.4301030E+01   0.2000000E+00   0.1647851E+01
   0.1800000E+02   0.3000000E+02   0.5000000E-04   0.5000000E-04  -0.4301030E+01   0.2000000E+00   0.1647851E+01
   0.1800000E+02   0.3200000E+02   0.5000000E-04   0.5000000E-04  -0.4301030E+01   0.2000000E+00   0.1647851E+01
   0.1800000E+02   0.3400000E+02   0.5000000E-04   0.5000000E-04  -0.4301030E+01   0.2000000E+00   0.1647851E+01
   0.1800000E+02   0.3600000E+02   0.5000000E-04   0.5000000E-04  -0.4301030E+01   0.2000000E+00   0.1647851E+01
   0.1800000E+02   0.3800000E+02   0.5000000E-04   0.5000000E-04  -0.4301030E+01   0.2000000E+00   0.1647851E+01
   0.1800000E+02   0.4000000E+02   0.5000000E-04   0.5000000E-04  -0.4301030E+01   0.2000000E+00   0.1647851E+01
   0.1800000E+02   0.4200000E+02   0.5000000E-04   0.5000000E-04  -0.4301030E+01   0.2000000E+00   0.1647851E+01
   0.1800000E+02   0.4400000E+02   0.5000000E-04   0.5000000E-04  -0.4301030E+01   0.2000000E+00   0.1647851E+01
   0.1800000E+02   0.4600000E+02   0.5000000E-04   0.5000000E-04  -0.4301030E+01   0.2000000E+00   0.1647851E+01
   0.1800000E+02   0.4800000E+02   0.5000000E-04   0.5000000E-04  -0.4301030E+01   0.2000000E+00   0.1647851E+01
   0.1800000E+02   0.5000000E+02   0.5000000E-04   0.5000000E-04  -0.4301030E+01   0.2000000E+00   0.1647851E+01
   0.2000000E+02   0.0000000E+00   0.5000000E-04   0.5000000E-04  -0.4301030E+01   0.2000000E+00   0.1647851E+01
   0.2000000E+02   0.2000000E+01   0.5000000E-04   0.5000000E-04  -0.4301030E+01   0.2000000E+00   0.1647851E+01
   0.2000000E+02   0.4000000E+01   0.5000000E-04   0.5000000E-04  -0.4301030E+01   0.2000000E+00   0.1647851E+01
   0.2000000E+02   0.6000000E+01   0.5000000E-04   0.5000000E-04  -0.4301030E+01   0.2000000E+00   0.1647851E+01