variables="x","z","Pe_x","Pe_z","Co_x","Co_z"
zone i=    25, j=   200,T="   0.100000E+01 days"
  0.1000000E+01  0.1000000E+01  0.1228318E+01 -0.1227199E+01  0.1734516E-01 -0.1732937E-01
  0.1000000E+01  0.3000000E+01  0.4675643E+01 -0.8115172E+01  0.6602509E-01 -0.1145949E+00
  0.1000000E+01  0.5000000E+01  0.3208838E+01 -0.1501174E+02  0.4531223E-01 -0.2119819E+00
  0.1000000E+01  0.7000000E+01  0.3235979E+01 -0.2144851E+02  0.4569548E-01 -0.3028759E+00
  0.1000000E+01  0.9000000E+01  0.3309685E+01 -0.2797118E+02  0.4673630E-01 -0.3949831E+00
  0.1000000E+01  0.1100000E+02  0.3439063E+01 -0.3470581E+02  0.4856325E-01 -0.4900831E+00
  0.1000000E+01  0.1300000E+02  0.3611578E+01 -0.4174181E+02  0.5099935E-01 -0.5894391E+00
  0.1000000E+01  0.1500000E+02  0.3830982E+01 -0.4916774E+02  0.5409756E-01 -0.6943012E+00
  0.1000000E+01  0.1700000E+02  0.4105209E+01 -0.5708401E+02  0.5796995E-01 -0.8060874E+00
  0.1000000E+01  0.1900000E+02  0.4446265E+01 -0.6561086E+02  0.6278603E-01 -0.9264956E+00
  0.1000000E+01  0.2100000E+02  0.4871062E+01 -0.7489698E+02  0.6878462E-01 -0.1057626E+01
  0.1000000E+01  0.2300000E+02  0.5403341E+01 -0.8513093E+02  0.7630096E-01 -0.1202140E+01
  0.1000000E+01  0.2500000E+02  0.6076869E+01 -0.9655742E+02  0.8581190E-01 -0.1363494E+01
  0.1000000E+01  0.2700000E+02  0.6940709E+01 -0.1095018E+03  0.9801025E-01 -0.1546283E+01
  0.1000000E+01  0.2900000E+02  0.8068119E+01 -0.1244081E+03  0.1139305E+00 -0.1756776E+01
  0.1000000E+01  0.3100000E+02  0.9572165E+01 -0.1418999E+03  0.1351692E+00 -0.2003778E+01
  0.1000000E+01  0.3300000E+02  0.1163450E+02 -0.1628829E+03  0.1642915E+00 -0.2300081E+01
  0.1000000E+01  0.3500000E+02  0.1456149E+02 -0.1887261E+03  0.2056238E+00 -0.2665014E+01
  0.1000000E+01  0.3700000E+02  0.1890268E+02 -0.2216002E+03  0.2669261E+00 -0.3129233E+01
  0.1000000E+01  0.3900000E+02  0.2571596E+02 -0.2651608E+03  0.3631369E+00 -0.3744355E+01
  0.1000000E+01  0.4100000E+02  0.3732187E+02 -0.3260616E+03  0.5270247E+00 -0.4604339E+01
  0.1000000E+01  0.4300000E+02  0.5875134E+02 -0.4177228E+03  0.8296318E+00 -0.5898693E+01
  0.1000000E+01  0.4500000E+02  0.1128095E+03 -0.5719432E+03  0.1592991E+01 -0.8076450E+01
  0.1000000E+01  0.4700000E+02  0.1933700E+03 -0.8777949E+03  0.2730592E+01 -0.1239540E+02
  0.1000000E+01  0.4900000E+02  0.1884290E+04 -0.1882210E+04  0.2660819E+02 -0.2657882E+02
  0.3000000E+01  0.1000000E+01  0.8079481E+01 -0.4620034E+01  0.1140909E+00 -0.6523983E-01
  0.3000000E+01  0.3000000E+01  0.9642428E+01 -0.9534133E+01  0.1361614E+00 -0.1346322E+00
  0.3000000E+01  0.5000000E+01  0.9612354E+01 -0.1508966E+02  0.1357367E+00 -0.2130822E+00
  0.3000000E+01  0.7000000E+01  0.9624756E+01 -0.2133105E+02  0.1359119E+00 -0.3012172E+00
  0.3000000E+01  0.9000000E+01  0.9886699E+01 -0.2775299E+02  0.1396108E+00 -0.3919020E+00
  0.3000000E+01  0.1100000E+02  0.1027571E+02 -0.3440561E+02  0.1451040E+00 -0.4858441E+00
  0.3000000E+01  0.1300000E+02  0.1078915E+02 -0.4135605E+02  0.1523544E+00 -0.5839917E+00
  0.3000000E+01  0.1500000E+02  0.1143934E+02 -0.4868391E+02  0.1615357E+00 -0.6874690E+00
  0.3000000E+01  0.1700000E+02  0.1225034E+02 -0.5648261E+02  0.1729880E+00 -0.7975949E+00
  0.3000000E+01  0.1900000E+02  0.1325720E+02 -0.6486434E+02  0.1872059E+00 -0.9159540E+00
  0.3000000E+01  0.2100000E+02  0.1450884E+02 -0.7396706E+02  0.2048804E+00 -0.1044494E+01
  0.3000000E+01  0.2300000E+02  0.1607352E+02 -0.8396390E+02  0.2269753E+00 -0.1185660E+01
  0.3000000E+01  0.2500000E+02  0.1804771E+02 -0.9507673E+02  0.2548530E+00 -0.1342585E+01
  0.3000000E+01  0.2700000E+02  0.2057059E+02 -0.1075958E+03  0.2904787E+00 -0.1519368E+01
  0.3000000E+01  0.2900000E+02  0.2384808E+02 -0.1219092E+03  0.3367604E+00 -0.1721489E+01
  0.3000000E+01  0.3100000E+02  0.2819440E+02 -0.1385484E+03  0.3981352E+00 -0.1956451E+01
  0.3000000E+01  0.3300000E+02  0.3410701E+02 -0.1582594E+03  0.4816275E+00 -0.2234793E+01
  0.3000000E+01  0.3500000E+02  0.4240905E+02 -0.1821205E+03  0.5988612E+00 -0.2571736E+01
  0.3000000E+01  0.3700000E+02  0.5453733E+02 -0.2117364E+03  0.7701255E+00 -0.2989944E+01
  0.3000000E+01  0.3900000E+02  0.7317773E+02 -0.2495710E+03  0.1033348E+01 -0.3524210E+01
  0.3000000E+01  0.4100000E+02  0.1037286E+03 -0.2994947E+03  0.1464759E+01 -0.4229186E+01
  0.3000000E+01  0.4300000E+02  0.1589905E+03 -0.3675983E+03  0.2245116E+01 -0.5190882E+01
  0.3000000E+01  0.4500000E+02  0.2660430E+03 -0.4609570E+03  0.3756812E+01 -0.6509207E+01
  0.3000000E+01  0.4700000E+02  0.5902519E+03 -0.5840115E+03  0.8334990E+01 -0.8246869E+01
  0.3000000E+01  0.4900000E+02  0.8840353E+03 -0.1912899E+03  0.1248353E+02 -0.2701218E+01
  0.5000000E+01  0.1000000E+01  0.1478914E+02 -0.3059089E+01  0.2088385E+00 -0.4319761E-01
  0.5000000E+01  0.3000000E+01  0.1510994E+02 -0.9211328E+01  0.2133685E+00 -0.1300738E+00
  0.5000000E+01  0.5000000E+01  0.1552915E+02 -0.1502333E+02  0.2192883E+00 -0.2121455E+00
  0.5000000E+01  0.7000000E+01  0.1587210E+02 -0.2104204E+02  0.2241310E+00 -0.2971361E+00
  0.5000000E+01  0.9000000E+01  0.1634324E+02 -0.2730892E+02  0.2307840E+00 -0.3856312E+00
  0.5000000E+01  0.1100000E+02  0.1699308E+02 -0.3381084E+02  0.2399604E+00 -0.4774453E+00
  0.5000000E+01  0.1300000E+02  0.1783316E+02 -0.4059728E+02  0.2518234E+00 -0.5732771E+00
  0.5000000E+01  0.1500000E+02  0.1889030E+02 -0.4773535E+02  0.2667512E+00 -0.6740743E+00
  0.5000000E+01  0.1700000E+02  0.2020400E+02 -0.5530646E+02  0.2853021E+00 -0.7809865E+00
  0.5000000E+01  0.1900000E+02  0.2182945E+02 -0.6340818E+02  0.3082552E+00 -0.8953914E+00
  0.5000000E+01  0.2100000E+02  0.2384244E+02 -0.7215860E+02  0.3366808E+00 -0.1018957E+01
  0.5000000E+01  0.2300000E+02  0.2634745E+02 -0.8170267E+02  0.3720543E+00 -0.1153729E+01
  0.5000000E+01  0.2500000E+02  0.2949042E+02 -0.9222080E+02  0.4164363E+00 -0.1302257E+01
  0.5000000E+01  0.2700000E+02  0.3347878E+02 -0.1039405E+03  0.4727562E+00 -0.1467751E+01
  0.5000000E+01  0.2900000E+02  0.3861402E+02 -0.1171518E+03  0.5452714E+00 -0.1654309E+01
  0.5000000E+01  0.3100000E+02  0.4534584E+02 -0.1322276E+03  0.6403318E+00 -0.1867196E+01
  0.5000000E+01  0.3300000E+02  0.5436550E+02 -0.1496479E+03  0.7676991E+00 -0.2113188E+01
  0.5000000E+01  0.3500000E+02  0.6677314E+02 -0.1700223E+03  0.9429082E+00 -0.2400897E+01
  0.5000000E+01  0.3700000E+02  0.8439078E+02 -0.1940886E+03  0.1191688E+01 -0.2740738E+01
  0.5000000E+01  0.3900000E+02  0.1103678E+03 -0.2226013E+03  0.1558512E+01 -0.3143369E+01
  0.5000000E+01  0.4100000E+02  0.1504569E+03 -0.2558244E+03  0.2124612E+01 -0.3612515E+01
  0.5000000E+01  0.4300000E+02  0.2150465E+03 -0.2914170E+03  0.3036686E+01 -0.4115120E+01
  0.5000000E+01  0.4500000E+02  0.3277664E+03 -0.3173659E+03  0.4628413E+01 -0.4481547E+01
  0.5000000E+01  0.4700000E+02  0.4713576E+03 -0.2598025E+03  0.6656074E+01 -0.3668689E+01
  0.5000000E+01  0.4900000E+02  0.5823439E+03 -0.1107293E+03  0.8223320E+01 -0.1563616E+01
  0.7000000E+01  0.1000000E+01  0.2079649E+02 -0.2940113E+01  0.2936688E+00 -0.4151754E-01
  0.7000000E+01  0.3000000E+01  0.2101965E+02 -0.8786348E+01  0.2968199E+00 -0.1240726E+00
  0.7000000E+01  0.5000000E+01  0.2141082E+02 -0.1463792E+02  0.3023438E+00 -0.2067031E+00
  0.7000000E+01  0.7000000E+01  0.2194119E+02 -0.2055414E+02  0.3098331E+00 -0.2902465E+00
  0.7000000E+01  0.9000000E+01  0.2262855E+02 -0.2663831E+02  0.3195394E+00 -0.3761615E+00
  0.7000000E+01  0.1100000E+02  0.2352381E+02 -0.3293635E+02  0.3321814E+00 -0.4650966E+00
  0.7000000E+01  0.1300000E+02  0.2466428E+02 -0.3949122E+02  0.3482861E+00 -0.5576583E+00
  0.7000000E+01  0.1500000E+02  0.2608964E+02 -0.4635893E+02  0.3684136E+00 -0.6546377E+00
  0.7000000E+01  0.1700000E+02  0.2785246E+02 -0.5360636E+02  0.3933065E+00 -0.7569793E+00
  0.7000000E+01  0.1900000E+02  0.3002327E+02 -0.6131201E+02  0.4239607E+00 -0.8657913E+00
  0.7000000E+01  0.2100000E+02  0.3269707E+02 -0.6956798E+02  0.4617176E+00 -0.9823743E+00
  0.7000000E+01  0.2300000E+02  0.3600271E+02 -0.7848263E+02  0.5083968E+00 -0.1108259E+01
  0.7000000E+01  0.2500000E+02  0.4011693E+02 -0.8818365E+02  0.5664941E+00 -0.1245248E+01
  0.7000000E+01  0.2700000E+02  0.4528566E+02 -0.9882056E+02  0.6394820E+00 -0.1395452E+01
  0.7000000E+01  0.2900000E+02  0.5185683E+02 -0.1105653E+03  0.7322740E+00 -0.1561301E+01
  0.7000000E+01  0.3100000E+02  0.6033202E+02 -0.1236071E+03  0.8519528E+00 -0.1745465E+01
  0.7000000E+01  0.3300000E+02  0.7144886E+02 -0.1381319E+03  0.1008934E+01 -0.1950571E+01
  0.7000000E+01  0.3500000E+02  0.8631366E+02 -0.1542658E+03  0.1218841E+01 -0.2178399E+01
  0.7000000E+01  0.3700000E+02  0.1066129E+03 -0.1719282E+03  0.1505488E+01 -0.2427810E+01
  0.7000000E+01  0.3900000E+02  0.1349346E+03 -0.1904630E+03  0.1905421E+01 -0.2689541E+01
  0.7000000E+01  0.4100000E+02  0.1751038E+03 -0.2077046E+03  0.2472653E+01 -0.2933011E+01
  0.7000000E+01  0.4300000E+02  0.2323055E+03 -0.2177456E+03  0.3280402E+01 -0.3074801E+01
  0.7000000E+01  0.4500000E+02  0.3059772E+03 -0.2046457E+03  0.4320726E+01 -0.2889816E+01
  0.7000000E+01  0.4700000E+02  0.3821591E+03 -0.1527496E+03  0.5396496E+01 -0.2156988E+01
  0.7000000E+01  0.4900000E+02  0.4322840E+03 -0.5667098E+02  0.6104314E+01 -0.8002549E+00
  0.9000000E+01  0.1000000E+01  0.2654872E+02 -0.2818521E+01  0.3748964E+00 -0.3980053E-01
  0.9000000E+01  0.3000000E+01  0.2677016E+02 -0.8463344E+01  0.3780233E+00 -0.1195115E+00
  0.9000000E+01  0.5000000E+01  0.2720276E+02 -0.1413714E+02  0.3841322E+00 -0.1996316E+00
  0.9000000E+01  0.7000000E+01  0.2784164E+02 -0.1988568E+02  0.3931538E+00 -0.2808070E+00
  0.9000000E+01  0.9000000E+01  0.2870125E+02 -0.2575980E+02  0.4052925E+00 -0.3637559E+00
  0.9000000E+01  0.1100000E+02  0.2981214E+02 -0.3180872E+02  0.4209793E+00 -0.4491733E+00
  0.9000000E+01  0.1300000E+02  0.3121479E+02 -0.3807572E+02  0.4407863E+00 -0.5376699E+00
  0.9000000E+01  0.1500000E+02  0.3295733E+02 -0.4460653E+02  0.4653928E+00 -0.6298920E+00
  0.9000000E+01  0.1700000E+02  0.3510077E+02 -0.5145250E+02  0.4956604E+00 -0.7265644E+00
  0.9000000E+01  0.1900000E+02  0.3772490E+02 -0.5867093E+02  0.5327160E+00 -0.8284964E+00
  0.9000000E+01  0.2100000E+02  0.4093506E+02 -0.6632511E+02  0.5780469E+00 -0.9365815E+00
  0.9000000E+01  0.2300000E+02  0.4487124E+02 -0.7448368E+02  0.6336299E+00 -0.1051789E+01
  0.9000000E+01  0.2500000E+02  0.4972104E+02 -0.8321857E+02  0.7021143E+00 -0.1175135E+01
  0.9000000E+01  0.2700000E+02  0.5573817E+02 -0.9259978E+02  0.7870827E+00 -0.1307608E+01
  0.9000000E+01  0.2900000E+02  0.6326909E+02 -0.1026840E+03  0.8934274E+00 -0.1450009E+01
  0.9000000E+01  0.3100000E+02  0.7279103E+02 -0.1134913E+03  0.1027887E+01 -0.1602618E+01
  0.9000000E+01  0.3300000E+02  0.8496500E+02 -0.1249569E+03  0.1199797E+01 -0.1764526E+01
  0.9000000E+01  0.3500000E+02  0.1007047E+03 -0.1368364E+03  0.1422058E+01 -0.1932276E+01
  0.9000000E+01  0.3700000E+02  0.1212485E+03 -0.1485146E+03  0.1712158E+01 -0.2097185E+01
  0.9000000E+01  0.3900000E+02  0.1481700E+03 -0.1586333E+03  0.2092320E+01 -0.2240072E+01
  0.9000000E+01  0.4100000E+02  0.1831262E+03 -0.1644089E+03  0.2585938E+01 -0.2321630E+01
  0.9000000E+01  0.4300000E+02  0.2264226E+03 -0.1605431E+03  0.3197330E+01 -0.2267041E+01
  0.9000000E+01  0.4500000E+02  0.2745441E+03 -0.1400548E+03  0.3876857E+01 -0.1977724E+01
  0.9000000E+01  0.4700000E+02  0.3182159E+03 -0.9748668E+02  0.4493550E+01 -0.1376616E+01
  0.9000000E+01  0.4900000E+02  0.3447838E+03 -0.3524112E+02  0.4868717E+01 -0.4976424E+00
  0.1100000E+02  0.1000000E+01  0.3207230E+02 -0.2702102E+01  0.4528953E+00 -0.3815658E-01
  0.1100000E+02  0.3000000E+01  0.3231363E+02 -0.8116996E+01  0.4563031E+00 -0.1146207E+00
  0.1100000E+02  0.5000000E+01  0.3279690E+02 -0.1356762E+02  0.4631273E+00 -0.1915893E+00
  0.1100000E+02  0.7000000E+01  0.3352813E+02 -0.1908509E+02  0.4734531E+00 -0.2695020E+00
  0.1100000E+02  0.9000000E+01  0.3452351E+02 -0.2470538E+02  0.4875089E+00 -0.3488665E+00
  0.1100000E+02  0.1100000E+02  0.3581106E+02 -0.3046471E+02  0.5056905E+00 -0.4301943E+00
  0.1100000E+02  0.1300000E+02  0.3742983E+02 -0.3639831E+02  0.5285493E+00 -0.5139831E+00
  0.1100000E+02  0.1500000E+02  0.3943025E+02 -0.4254098E+02  0.5567974E+00 -0.6007243E+00
  0.1100000E+02  0.1700000E+02  0.4187663E+02 -0.4892823E+02  0.5913429E+00 -0.6909190E+00
  0.1100000E+02  0.1900000E+02  0.4485167E+02 -0.5559603E+02  0.6333536E+00 -0.7850754E+00
  0.1100000E+02  0.2100000E+02  0.4846230E+02 -0.6257922E+02  0.6843396E+00 -0.8836857E+00
  0.1100000E+02  0.2300000E+02  0.5284732E+02 -0.6990837E+02  0.7462607E+00 -0.9871811E+00
  0.1100000E+02  0.2500000E+02  0.5818748E+02 -0.7760392E+02  0.8216695E+00 -0.1095851E+01
  0.1100000E+02  0.2700000E+02  0.6471879E+02 -0.8566597E+02  0.9138987E+00 -0.1209695E+01
  0.1100000E+02  0.2900000E+02  0.7274956E+02 -0.9405616E+02  0.1027302E+01 -0.1328174E+01
  0.1100000E+02  0.3100000E+02  0.8268068E+02 -0.1026661E+03  0.1167540E+01 -0.1449755E+01
  0.1100000E+02  0.3300000E+02  0.9502618E+02 -0.1112626E+03  0.1341871E+01 -0.1571148E+01
  0.1100000E+02  0.3500000E+02  0.1104229E+03 -0.1193943E+03  0.1559290E+01 -0.1685975E+01
  0.1100000E+02  0.3700000E+02  0.1295993E+03 -0.1262365E+03  0.1830081E+01 -0.1782595E+01
  0.1100000E+02  0.3900000E+02  0.1532298E+03 -0.1303593E+03  0.2163769E+01 -0.1840813E+01
  0.1100000E+02  0.4100000E+02  0.1815052E+03 -0.1294513E+03  0.2563048E+01 -0.1827991E+01
  0.1100000E+02  0.4300000E+02  0.2133383E+03 -0.1203712E+03  0.3012566E+01 -0.1699771E+01
  0.1100000E+02  0.4500000E+02  0.2454806E+03 -0.9996297E+02  0.3466449E+01 -0.1411584E+01
  0.1100000E+02  0.4700000E+02  0.2724535E+03 -0.6693381E+02  0.3847335E+01 -0.9451770E+00
  0.1100000E+02  0.4900000E+02  0.2880451E+03 -0.2363448E+02  0.4067506E+01 -0.3337441E+00
  0.1300000E+02  0.1000000E+01  0.3735395E+02 -0.2576136E+01  0.5274778E+00 -0.3637781E-01
  0.1300000E+02  0.3000000E+01  0.3761701E+02 -0.7738581E+01  0.5311924E+00 -0.1092771E+00
  0.1300000E+02  0.5000000E+01  0.3814724E+02 -0.1293253E+02  0.5386799E+00 -0.1826211E+00
  0.1300000E+02  0.7000000E+01  0.3895462E+02 -0.1818158E+02  0.5500809E+00 -0.2567434E+00
  0.1300000E+02  0.9000000E+01  0.4005709E+02 -0.2351104E+02  0.5656491E+00 -0.3320010E+00
  0.1300000E+02  0.1100000E+02  0.4148216E+02 -0.2894644E+02  0.5857725E+00 -0.4087547E+00
  0.1300000E+02  0.1300000E+02  0.4326771E+02 -0.3451225E+02  0.6109865E+00 -0.4873500E+00
  0.1300000E+02  0.1500000E+02  0.4546321E+02 -0.4023113E+02  0.6419892E+00 -0.5681067E+00
  0.1300000E+02  0.1700000E+02  0.4813172E+02 -0.4612319E+02  0.6796714E+00 -0.6513088E+00
  0.1300000E+02  0.1900000E+02  0.5135320E+02 -0.5220455E+02  0.7251622E+00 -0.7371841E+00
  0.1300000E+02  0.2100000E+02  0.5522879E+02 -0.5848448E+02  0.7798897E+00 -0.8258635E+00
  0.1300000E+02  0.2300000E+02  0.5988624E+02 -0.6496065E+02  0.8456579E+00 -0.9173139E+00
  0.1300000E+02  0.2500000E+02  0.6548640E+02 -0.7161133E+02  0.9247381E+00 -0.1011229E+01
  0.1300000E+02  0.2700000E+02  0.7223061E+02 -0.7838304E+02  0.1019974E+01 -0.1106852E+01
  0.1300000E+02  0.2900000E+02  0.8036800E+02 -0.8517093E+02  0.1134882E+01 -0.1202705E+01
  0.1300000E+02  0.3100000E+02  0.9020009E+02 -0.9178811E+02  0.1273722E+01 -0.1296146E+01
  0.1300000E+02  0.3300000E+02  0.1020765E+03 -0.9791872E+02  0.1441430E+01 -0.1382717E+01
  0.1300000E+02  0.3500000E+02  0.1163685E+03 -0.1030494E+03  0.1643249E+01 -0.1455168E+01
  0.1300000E+02  0.3700000E+02  0.1333948E+03 -0.1063788E+03  0.1883677E+01 -0.1502183E+01
  0.1300000E+02  0.3900000E+02  0.1532550E+03 -0.1067263E+03  0.2164125E+01 -0.1507090E+01
  0.1300000E+02  0.4100000E+02  0.1755392E+03 -0.1025246E+03  0.2478802E+01 -0.1447757E+01
  0.1300000E+02  0.4300000E+02  0.1989605E+03 -0.9204358E+02  0.2809535E+01 -0.1299754E+01
  0.1300000E+02  0.4500000E+02  0.2211282E+03 -0.7398063E+02  0.3122567E+01 -0.1044686E+01
  0.1300000E+02  0.4700000E+02  0.2387816E+03 -0.4828981E+02  0.3371853E+01 -0.6819038E+00
  0.1300000E+02  0.4900000E+02  0.2486486E+03 -0.1681993E+02  0.3511184E+01 -0.2375154E+00
  0.1500000E+02  0.1000000E+01  0.4237365E+02 -0.2440546E+01  0.5983613E+00 -0.3446312E-01
  0.1500000E+02  0.3000000E+01  0.4265511E+02 -0.7329650E+01  0.6023359E+00 -0.1035025E+00
  0.1500000E+02  0.5000000E+01  0.4322326E+02 -0.1224307E+02  0.6103588E+00 -0.1728853E+00
  0.1500000E+02  0.7000000E+01  0.4408929E+02 -0.1719763E+02  0.6225880E+00 -0.2428490E+00
  0.1500000E+02  0.9000000E+01  0.4527151E+02 -0.2221029E+02  0.6392822E+00 -0.3136330E+00
  0.1500000E+02  0.1100000E+02  0.4679648E+02 -0.2729715E+02  0.6608164E+00 -0.3854650E+00
  0.1500000E+02  0.1300000E+02  0.4870007E+02 -0.3247239E+02  0.6876972E+00 -0.4585450E+00
  0.1500000E+02  0.1500000E+02  0.5102866E+02 -0.3774691E+02  0.7205794E+00 -0.5330268E+00
  0.1500000E+02  0.1700000E+02  0.5384079E+02 -0.4312678E+02  0.7602896E+00 -0.6089963E+00
  0.1500000E+02  0.1900000E+02  0.5720935E+02 -0.4861092E+02  0.8078572E+00 -0.6864383E+00
  0.1500000E+02  0.2100000E+02  0.6122434E+02 -0.5418752E+02  0.8645532E+00 -0.7651858E+00
  0.1500000E+02  0.2300000E+02  0.6599591E+02 -0.5982858E+02  0.9319329E+00 -0.8448436E+00
  0.1500000E+02  0.2500000E+02  0.7165739E+02 -0.6548175E+02  0.1011879E+01 -0.9246725E+00
  0.1500000E+02  0.2700000E+02  0.7836746E+02 -0.7105834E+02  0.1106633E+01 -0.1003420E+01
  0.1500000E+02  0.2900000E+02  0.8630980E+02 -0.7641591E+02  0.1218787E+01 -0.1079074E+01
  0.1500000E+02  0.3100000E+02  0.9568702E+02 -0.8133383E+02  0.1351203E+01 -0.1148521E+01
  0.1500000E+02  0.3300000E+02  0.1067030E+03 -0.8548062E+02  0.1506760E+01 -0.1207078E+01
  0.1500000E+02  0.3500000E+02  0.1195236E+03 -0.8837482E+02  0.1687801E+01 -0.1247947E+01
  0.1500000E+02  0.3700000E+02  0.1342021E+03 -0.8934865E+02  0.1895077E+01 -0.1261699E+01
  0.1500000E+02  0.3900000E+02  0.1505571E+03 -0.8754131E+02  0.2126027E+01 -0.1236177E+01
  0.1500000E+02  0.4100000E+02  0.1680124E+03 -0.8197004E+02  0.2372515E+01 -0.1157505E+01
  0.1500000E+02  0.4300000E+02  0.1854556E+03 -0.7173372E+02  0.2618832E+01 -0.1012957E+01
  0.1500000E+02  0.4500000E+02  0.2012242E+03 -0.5635417E+02  0.2841501E+01 -0.7957812E+00
  0.1500000E+02  0.4700000E+02  0.2133313E+03 -0.3615574E+02  0.3012466E+01 -0.5105578E+00
  0.1500000E+02  0.4900000E+02  0.2199416E+03 -0.1247673E+02  0.3105811E+01 -0.1761848E+00
  0.1700000E+02  0.1000000E+01  0.4711351E+02 -0.2297075E+01  0.6652932E+00 -0.3243715E-01
  0.1700000E+02  0.3000000E+01  0.4740849E+02 -0.6896678E+01  0.6694586E+00 -0.9738848E-01
  0.1700000E+02  0.5000000E+01  0.4800380E+02 -0.1151259E+02  0.6778650E+00 -0.1625701E+00
  0.1700000E+02  0.7000000E+01  0.4891054E+02 -0.1615535E+02  0.6906693E+00 -0.2281308E+00
  0.1700000E+02  0.9000000E+01  0.5014625E+02 -0.2083465E+02  0.7081188E+00 -0.2942076E+00
  0.1700000E+02  0.1100000E+02  0.5173563E+02 -0.2555844E+02  0.7305625E+00 -0.3609125E+00
  0.1700000E+02  0.1300000E+02  0.5371141E+02 -0.3033173E+02  0.7584627E+00 -0.4283165E+00
  0.1700000E+02  0.1500000E+02  0.5611531E+02 -0.3515509E+02  0.7924083E+00 -0.4964275E+00
  0.1700000E+02  0.1700000E+02  0.5899907E+02 -0.4002271E+02  0.8331301E+00 -0.5651635E+00
  0.1700000E+02  0.1900000E+02  0.6242578E+02 -0.4491973E+02  0.8815188E+00 -0.6343147E+00
  0.1700000E+02  0.2100000E+02  0.6647109E+02 -0.4981841E+02  0.9386430E+00 -0.7034893E+00
  0.1700000E+02  0.2300000E+02  0.7122434E+02 -0.5467287E+02  0.1005764E+01 -0.7720395E+00
  0.1700000E+02  0.2500000E+02  0.7678868E+02 -0.5941163E+02  0.1084338E+01 -0.8389559E+00
  0.1700000E+02  0.2700000E+02  0.8327950E+02 -0.6392757E+02  0.1175996E+01 -0.9027257E+00
  0.1700000E+02  0.2900000E+02  0.9081930E+02 -0.6806455E+02  0.1282466E+01 -0.9611443E+00
  0.1700000E+02  0.3100000E+02  0.9952637E+02 -0.7160091E+02  0.1405419E+01 -0.1011081E+01
  0.1700000E+02  0.3300000E+02  0.1094931E+03 -0.7423087E+02  0.1546159E+01 -0.1048219E+01
  0.1700000E+02  0.3500000E+02  0.1207487E+03 -0.7554834E+02  0.1705101E+01 -0.1066824E+01
  0.1700000E+02  0.3700000E+02  0.1332022E+03 -0.7504314E+02  0.1880957E+01 -0.1059690E+01
  0.1700000E+02  0.3900000E+02  0.1465670E+03 -0.7212705E+02  0.2069682E+01 -0.1018511E+01
  0.1700000E+02  0.4100000E+02  0.1602841E+03 -0.6621187E+02  0.2263383E+01 -0.9349825E+00
  0.1700000E+02  0.4300000E+02  0.1734809E+03 -0.5685189E+02  0.2449736E+01 -0.8028095E+00
  0.1700000E+02  0.4500000E+02  0.1850153E+03 -0.4393296E+02  0.2612615E+01 -0.6203805E+00
  0.1700000E+02  0.4700000E+02  0.1936402E+03 -0.2784500E+02  0.2734407E+01 -0.3932012E+00
  0.1700000E+02  0.4900000E+02  0.1982706E+03 -0.9546740E+01  0.2799793E+01 -0.1348102E+00
  0.1900000E+02  0.1000000E+01  0.5156013E+02 -0.2148146E+01  0.7280842E+00 -0.3033413E-01
  0.1900000E+02  0.3000000E+01  0.5186342E+02 -0.6447339E+01  0.7323670E+00 -0.9104334E-01
  0.1900000E+02  0.5000000E+01  0.5247503E+02 -0.1075501E+02  0.7410036E+00 -0.1518722E+00
  0.1900000E+02  0.7000000E+01  0.5340524E+02 -0.1507596E+02  0.7541392E+00 -0.2128888E+00
  0.1900000E+02  0.9000000E+01  0.5466999E+02 -0.1941358E+02  0.7719988E+00 -0.2741405E+00
  0.1900000E+02  0.1100000E+02  0.5629133E+02 -0.2376880E+02  0.7948938E+00 -0.3356409E+00
  0.1900000E+02  0.1300000E+02  0.5829797E+02 -0.2813894E+02  0.8232298E+00 -0.3973519E+00
  0.1900000E+02  0.1500000E+02  0.6072586E+02 -0.3251610E+02  0.8575141E+00 -0.4591621E+00
  0.1900000E+02  0.1700000E+02  0.6361865E+02 -0.3688514E+02  0.8983635E+00 -0.5208577E+00
  0.1900000E+02  0.1900000E+02  0.6702821E+02 -0.4122104E+02  0.9465101E+00 -0.5820852E+00
  0.1900000E+02  0.2100000E+02  0.7101470E+02 -0.4548529E+02  0.1002804E+01 -0.6423010E+00
  0.1900000E+02  0.2300000E+02  0.7564611E+02 -0.4962133E+02  0.1068204E+01 -0.7007063E+00
  0.1900000E+02  0.2500000E+02  0.8099651E+02 -0.5354843E+02  0.1143757E+01 -0.7561612E+00
  0.1900000E+02  0.2700000E+02  0.8714225E+02 -0.5715422E+02  0.1230542E+01 -0.8070788E+00
  0.1900000E+02  0.2900000E+02  0.9415464E+02 -0.6028571E+02  0.1329564E+01 -0.8512988E+00
  0.1900000E+02  0.3100000E+02  0.1020874E+03 -0.6273990E+02  0.1441584E+01 -0.8859547E+00
  0.1900000E+02  0.3300000E+02  0.1109567E+03 -0.6425586E+02  0.1566828E+01 -0.9073616E+00
  0.1900000E+02  0.3500000E+02  0.1207118E+03 -0.6451264E+02  0.1704580E+01 -0.9109876E+00
  0.1900000E+02  0.3700000E+02  0.1311970E+03 -0.6314015E+02  0.1852642E+01 -0.8916066E+00
  0.1900000E+02  0.3900000E+02  0.1421101E+03 -0.5975215E+02  0.2006747E+01 -0.8437643E+00
  0.1900000E+02  0.4100000E+02  0.1529707E+03 -0.5400909E+02  0.2160110E+01 -0.7626662E+00
  0.1900000E+02  0.4300000E+02  0.1631188E+03 -0.4570968E+02  0.2303413E+01 -0.6454696E+00
  0.1900000E+02  0.4500000E+02  0.1717660E+03 -0.3489358E+02  0.2425520E+01 -0.4927347E+00
  0.1900000E+02  0.4700000E+02  0.1781056E+03 -0.2191992E+02  0.2515042E+01 -0.3095327E+00
  0.1900000E+02  0.4900000E+02  0.1814669E+03 -0.7480143E+01  0.2562507E+01 -0.1056276E+00
  0.2100000E+02  0.1000000E+01  0.5570510E+02 -0.1996250E+01  0.7866157E+00 -0.2818919E-01
  0.2100000E+02  0.3000000E+01  0.5601175E+02 -0.5989297E+01  0.7909460E+00 -0.8457530E-01
  0.2100000E+02  0.5000000E+01  0.5662952E+02 -0.9983675E+01  0.7996695E+00 -0.1409802E+00
  0.2100000E+02  0.7000000E+01  0.5756744E+02 -0.1397916E+02  0.8129139E+00 -0.1974007E+00
  0.2100000E+02  0.9000000E+01  0.5883935E+02 -0.1797372E+02  0.8308747E+00 -0.2538082E+00
  0.2100000E+02  0.1100000E+02  0.6046412E+02 -0.2196254E+02  0.8538182E+00 -0.3101347E+00
  0.2100000E+02  0.1300000E+02  0.6246589E+02 -0.2593678E+02  0.8820852E+00 -0.3662551E+00
  0.2100000E+02  0.1500000E+02  0.6487424E+02 -0.2988201E+02  0.9160938E+00 -0.4219660E+00
  0.2100000E+02  0.1700000E+02  0.6772430E+02 -0.3377638E+02  0.9563396E+00 -0.4769586E+00
  0.2100000E+02  0.1900000E+02  0.7105644E+02 -0.3758811E+02  0.1003393E+01 -0.5307843E+00
  0.2100000E+02  0.2100000E+02  0.7491564E+02 -0.4127253E+02  0.1057889E+01 -0.5828123E+00
  0.2100000E+02  0.2300000E+02  0.7935000E+02 -0.4476833E+02  0.1120507E+01 -0.6321768E+00
  0.2100000E+02  0.2500000E+02  0.8440790E+02 -0.4799312E+02  0.1191930E+01 -0.6777143E+00
  0.2100000E+02  0.2700000E+02  0.9013330E+02 -0.5083838E+02  0.1272779E+01 -0.7178924E+00
  0.2100000E+02  0.2900000E+02  0.9655813E+02 -0.5316433E+02  0.1363504E+01 -0.7507372E+00
  0.2100000E+02  0.3100000E+02  0.1036908E+03 -0.5479582E+02  0.1464225E+01 -0.7737757E+00
  0.2100000E+02  0.3300000E+02  0.1115003E+03 -0.5552120E+02  0.1574503E+01 -0.7840188E+00
  0.2100000E+02  0.3500000E+02  0.1198953E+03 -0.5509722E+02  0.1693049E+01 -0.7780318E+00
  0.2100000E+02  0.3700000E+02  0.1287013E+03 -0.5326436E+02  0.1817400E+01 -0.7521499E+00
  0.2100000E+02  0.3900000E+02  0.1376398E+03 -0.4977630E+02  0.1943621E+01 -0.7028946E+00
  0.2100000E+02  0.4100000E+02  0.1463189E+03 -0.4444523E+02  0.2066180E+01 -0.6276143E+00
  0.2100000E+02  0.4300000E+02  0.1542458E+03 -0.3719854E+02  0.2178116E+01 -0.5252832E+00
  0.2100000E+02  0.4500000E+02  0.1608691E+03 -0.2813429E+02  0.2271643E+01 -0.3972863E+00
  0.2100000E+02  0.4700000E+02  0.1656523E+03 -0.1755638E+02  0.2339188E+01 -0.2479149E+00
  0.2100000E+02  0.4900000E+02  0.1681644E+03 -0.5970239E+01  0.2374662E+01 -0.8430617E-01
  0.2300000E+02  0.1000000E+01  0.5954491E+02 -0.1843703E+01  0.8408379E+00 -0.2603507E-01
  0.2300000E+02  0.3000000E+01  0.5985049E+02 -0.5529607E+01  0.8451531E+00 -0.7808398E-01
  0.2300000E+02  0.5000000E+01  0.6046544E+02 -0.9210656E+01  0.8538368E+00 -0.1300643E+00
  0.2300000E+02  0.7000000E+01  0.6139733E+02 -0.1288237E+02  0.8669961E+00 -0.1819128E+00
  0.2300000E+02  0.9000000E+01  0.6265763E+02 -0.1653830E+02  0.8847928E+00 -0.2335385E+00
  0.2300000E+02  0.1100000E+02  0.6426176E+02 -0.2016907E+02  0.9074448E+00 -0.2848089E+00
  0.2300000E+02  0.1300000E+02  0.6622907E+02 -0.2376118E+02  0.9352254E+00 -0.3355332E+00
  0.2300000E+02  0.1500000E+02  0.6858275E+02 -0.2729558E+02  0.9684618E+00 -0.3854428E+00
  0.2300000E+02  0.1700000E+02  0.7134948E+02 -0.3074603E+02  0.1007531E+01 -0.4341668E+00
  0.2300000E+02  0.1900000E+02  0.7455877E+02 -0.3407702E+02  0.1052850E+01 -0.4812041E+00
  0.2300000E+02  0.2100000E+02  0.7824176E+02 -0.3724142E+02  0.1104857E+01 -0.5258887E+00
  0.2300000E+02  0.2300000E+02  0.8242917E+02 -0.4017767E+02  0.1163988E+01 -0.5673518E+00
  0.2300000E+02  0.2500000E+02  0.8714819E+02 -0.4280686E+02  0.1230626E+01 -0.6044788E+00
  0.2300000E+02  0.2700000E+02  0.9241765E+02 -0.4502978E+02  0.1305036E+01 -0.6358687E+00
  0.2300000E+02  0.2900000E+02  0.9824116E+02 -0.4672459E+02  0.1387270E+01 -0.6598013E+00
  0.2300000E+02  0.3100000E+02  0.1045978E+03 -0.4774622E+02  0.1477033E+01 -0.6742278E+00
  0.2300000E+02  0.3300000E+02  0.1114304E+03 -0.4792877E+02  0.1573516E+01 -0.6768056E+00
  0.2300000E+02  0.3500000E+02  0.1186319E+03 -0.4709312E+02  0.1675210E+01 -0.6650053E+00
  0.2300000E+02  0.3700000E+02  0.1260327E+03 -0.4506167E+02  0.1779717E+01 -0.6363191E+00
  0.2300000E+02  0.3900000E+02  0.1333915E+03 -0.4168164E+02  0.1883631E+01 -0.5885895E+00
  0.2300000E+02  0.4100000E+02  0.1403962E+03 -0.3685609E+02  0.1982544E+01 -0.5204474E+00
  0.2300000E+02  0.4300000E+02  0.1466787E+03 -0.3057835E+02  0.2071260E+01 -0.4317991E+00
  0.2300000E+02  0.4500000E+02  0.1518479E+03 -0.2296201E+02  0.2144254E+01 -0.3242482E+00
  0.2300000E+02  0.4700000E+02  0.1555374E+03 -0.1425586E+02  0.2196355E+01 -0.2013080E+00
  0.2300000E+02  0.4900000E+02  0.1574610E+03 -0.4835015E+01  0.2223518E+01 -0.6827558E-01
  0.2500000E+02  0.1000000E+01  0.6308037E+02 -0.1692537E+01  0.8907624E+00 -0.2390044E-01
  0.2500000E+02  0.3000000E+01  0.6338114E+02 -0.5074413E+01  0.8950096E+00 -0.7165615E-01
  0.2500000E+02  0.5000000E+01  0.6398571E+02 -0.8446333E+01  0.9035468E+00 -0.1192713E+00
  0.2500000E+02  0.7000000E+01  0.6490013E+02 -0.1180039E+02  0.9164593E+00 -0.1666341E+00
  0.2500000E+02  0.9000000E+01  0.6613341E+02 -0.1512670E+02  0.9338746E+00 -0.2136051E+00
  0.2500000E+02  0.1100000E+02  0.6769750E+02 -0.1841246E+02  0.9559613E+00 -0.2600036E+00
  0.2500000E+02  0.1300000E+02  0.6960708E+02 -0.2164090E+02  0.9829265E+00 -0.3055928E+00
  0.2500000E+02  0.1500000E+02  0.7187919E+02 -0.2479005E+02  0.1015011E+01 -0.3500621E+00
  0.2500000E+02  0.1700000E+02  0.7453272E+02 -0.2783129E+02  0.1052482E+01 -0.3930076E+00
  0.2500000E+02  0.1900000E+02  0.7758741E+02 -0.3072778E+02  0.1095617E+01 -0.4339091E+00
  0.2500000E+02  0.2100000E+02  0.8106243E+02 -0.3343267E+02  0.1144688E+01 -0.4721050E+00
  0.2500000E+02  0.2300000E+02  0.8497419E+02 -0.3588725E+02  0.1199927E+01 -0.5067664E+00
  0.2500000E+02  0.2500000E+02  0.8933326E+02 -0.3801919E+02  0.1261481E+01 -0.5368717E+00
  0.2500000E+02  0.2700000E+02  0.9414007E+02 -0.3974119E+02  0.1329359E+01 -0.5611882E+00
  0.2500000E+02  0.2900000E+02  0.9937918E+02 -0.4095055E+02  0.1403341E+01 -0.5782656E+00
  0.2500000E+02  0.3100000E+02  0.1050123E+03 -0.4153047E+02  0.1482887E+01 -0.5864547E+00
  0.2500000E+02  0.3300000E+02  0.1109702E+03 -0.4135405E+02  0.1567019E+01 -0.5839634E+00
  0.2500000E+02  0.3500000E+02  0.1171445E+03 -0.4029209E+02  0.1654205E+01 -0.5689675E+00
  0.2500000E+02  0.3700000E+02  0.1233808E+03 -0.3822560E+02  0.1742269E+01 -0.5397864E+00
  0.2500000E+02  0.3900000E+02  0.1294767E+03 -0.3506302E+02  0.1828349E+01 -0.4951273E+00
  0.2500000E+02  0.4100000E+02  0.1351858E+03 -0.3076089E+02  0.1908969E+01 -0.4343767E+00
  0.2500000E+02  0.4300000E+02  0.1402322E+03 -0.2534473E+02  0.1980228E+01 -0.3578948E+00
  0.2500000E+02  0.4500000E+02  0.1443336E+03 -0.1892504E+02  0.2038144E+01 -0.2672418E+00
  0.2500000E+02  0.4700000E+02  0.1472339E+03 -0.1170290E+02  0.2079101E+01 -0.1652575E+00
  0.2500000E+02  0.4900000E+02  0.1487373E+03 -0.3960995E+01  0.2100330E+01 -0.5593349E-01
  0.2700000E+02  0.1000000E+01  0.6631607E+02 -0.1544443E+01  0.9364540E+00 -0.2180919E-01
  0.2700000E+02  0.3000000E+01  0.6660900E+02 -0.4628803E+01  0.9405905E+00 -0.6536365E-01
  0.2700000E+02  0.5000000E+01  0.6719715E+02 -0.7699229E+01  0.9488957E+00 -0.1087214E+00