title="freezing front location: 1dx at knoy(1),knoz(1)"
variables="time(days)","x(m)"
zone i=      20, T="ts=      0.00"
    0.10000E+01    0.00000E+00
    0.20000E+01    0.00000E+00
    0.30000E+01    0.00000E+00
    0.40000E+01    0.00000E+00
    0.50000E+01    0.00000E+00
    0.60000E+01    0.00000E+00
    0.70000E+01    0.00000E+00
    0.80000E+01    0.00000E+00
    0.90000E+01    0.00000E+00
    0.10000E+02    0.00000E+00
    0.11000E+02    0.00000E+00
    0.12000E+02    0.00000E+00
    0.13000E+02    0.00000E+00
    0.14000E+02    0.00000E+00
    0.15000E+02    0.00000E+00
    0.16000E+02    0.00000E+00
    0.17000E+02    0.00000E+00
    0.18000E+02    0.00000E+00
    0.19000E+02    0.00000E+00
    0.20000E+02    0.00000E+00
