title="1D vertical temperature profile - time plot"
variables="t(d)","z(m)","T(degC)","Wu"
zone i=   26,j= 9999,T="at knox1,knoy1"
number of print times:      0 (replace 9999 above)
